Name,Formula,SMILES,Enthalpy_combustion (kcal/mol),Enthalpy_formation (kcal/mol)
"4,5,5-trimethylnonane",C12H26,CCCCC(C)(C)C(C)CCC,1799.069864,-70.984782
"4,5,6-trimethylnonane",C12H26,CCCC(C)C(C)C(C)CCC,1800.049788,-70.0048574
"2,2,3-trimethyloctane",C11H24,CCCCCC(C)C(C)(C)C,1651.12515,-67.638698
"2,2,4-trimethyloctane",C11H24,CCCCC(C)CC(C)(C)C,1650.814442,-68.0928094
"2,2,5-trimethyloctane",C11H24,CCCC(C)CCC(C)(C)C,1649.1414,-69.789752
"2,2,6-trimethyloctane",C11H24,CCC(C)CCCC(C)(C)C,1649.021897,-69.8375532
"2,2,7-trimethyloctane",C11H24,CC(C)CCCCC(C)(C)C,1648.567786,-70.387267
"2,3,3-trimethyloctane",C11H24,CCCCCC(C)(C)C(C)C,1651.866068,-66.8260776
"2,3,4-trimethyloctane",C11H24,CCCCC(C)C(C)C(C)C,1652.822092,-65.8222524
"2,3,5-trimethyloctane",C11H24,CCCC(C)CC(C)C(C)C,1651.53146,-67.1845866
"2,3,6-trimethyloctane",C11H24,CCC(C)CCC(C)C(C)C,1651.244653,-67.399692
"2,3,7-trimethyloctane",C11H24,CC(C)CCCC(C)C(C)C,1650.71884,-67.9494058
"2,4,4-trimethyloctane",C11H24,CCCCC(C)(C)CC(C)C,1651.579261,-67.3518908
"2,4,5-trimethyloctane",C11H24,CCCC(C)C(C)CC(C)C,1651.698764,-67.041183
"2,4,6-trimethyloctane",C11H24,CCC(C)CC(C)CC(C)C,1650.694939,-68.0689088
"2,4,7-trimethyloctane",C11H24,CC(C)CCC(C)CC(C)C,1650.049623,-68.7859268
"2,5,5-trimethyloctane",C11H24,CCCC(C)(C)CCC(C)C,1649.858418,-69.0488334
"2,5,6-trimethyloctane",C11H24,CCC(C)C(C)CCC(C)C,1651.459758,-67.2323878
"2,6,6-trimethyloctane",C11H24,CCC(C)(C)CCCC(C)C,1649.715014,-69.0966346
"3,3,4-trimethyloctane",C11H24,CCCCC(C)C(C)(C)CC,1652.630888,-66.0612584
"3,3,5-trimethyloctane",C11H24,CCCC(C)CC(C)(C)CC,1652.0572731999998,-66.802177
"3,3,6-trimethyloctane",C11H24,CCC(C)CCC(C)(C)CC,1650.240828,-68.5469208
"3,4,4-trimethyloctane",C11H24,CCCCC(C)(C)C(C)CC,1652.630888,-66.085159
"3,4,5-trimethyloctane",C11H24,CCCC(C)C(C)C(C)CC,1653.491309,-65.129135
"3,4,6-trimethyloctane",C11H24,CCC(C)CC(C)C(C)CC,1652.152876,-66.5153698
"3,5,5-trimethyloctane",C11H24,CCCC(C)(C)CC(C)CC,1652.152876,-66.802177
"4,4,5-trimethyloctane",C11H24,CCCC(C)C(C)(C)CCC,1652.702589,-66.0373578
trimethylolpropane,C6H14O3,CCC(CO)(CO)CO,792.6872996,-153.0092511
"2,2,3-trimethylpentane",C8H18,CCC(C)C(C)(C)C,1212.238432,-52.58132
"2,2,4-trimethylpentane",C8H18,CC(C)CC(C)(C)C,1211.569215,-53.537344
"2,3,3-trimethylpentane",C8H18,CCC(C)(C)C(C)C,1212.54914,-52.222811
"2,3,4-trimethylpentane",C8H18,CC(C)C(C)C(C)C,1212.788146,-51.9360038
"2,3,4-trimethylphenol",C9H12O,CC1=C(C(=C(C=C1)O)C)C,1131.000293,-46.08274686
"2,3,5-trimethylphenol",C9H12O,CC1=CC(=C(C(=C1)O)C)C,1131.024193,-46.08274686
"2,3,6-trimethylphenol",C9H12O,CC1=C(C(=C(C=C1)C)O)C,1131.000293,-46.08274686
"2,4,5-trimethylphenol",C9H12O,CC1=CC(=C(C=C1C)O)C,1131.024193,-46.08274686
"2,4,6-trimethylphenol",C9H12O,CC1=CC(=C(C(=C1)C)O)C,1131.358802,-46.08274686
"3,4,5-trimethylphenol",C9H12O,CC1=CC(=CC(=C1C)C)O,1130.641784,-46.08274686
"2,4,6-trimethylpyridine",C8H11N,CC1=CC(=NC(=C1)C)C,829.8049314,4.78012
trimethyl silane,C3H10Si,C[SiH](C)C,666.9701435999999,-37.43072966
"2,3,4-trimethylthiophene",C7H10S,CC1=CSC(=C1C)C,1008.294612,-0.29158732
"2,3,5-trimethylthiophene",C7H10S,CC1=CC(=C(S1)C)C,1013.672247,4.6414965200000005
"1,3,5-trinitrobenzene",C6H3N3O6,C1=C(C=C(C=C1[N+](=O)[O-])[N+](=O)[O-])[N+](=O)[O-],235.2536058,-8.9388244
"2,4,6-trinitrotoluene",C7H5N3O6,CC1=C(C=C(C=C1[N+](=O)[O-])[N+](=O)[O-])[N+](=O)[O-],204.1828258,-16.0373026
trinonylamine,C27H57N,CCCCCCCCCN(CCCCCCCCC)CCCCCCCCC,3464.869982,-127.4093185
trioctadecylamine,C54H111N,CCCCCCCCCCCCCCCCCCN(CCCCCCCCCCCCCCCCCC)CCCCCCCCCCCCCCCCCC,7378.330325,-260.6121424
trioctylamine,C24H51N,CCCCCCCCN(CCCCCCCC)CCCCCCCC,3049.405852,-112.610067
trioxane,C3H6O3,C1OCOCO1,331.59692440000003,-111.3528954
tripentylamine,C15H33N,CCCCCN(CCCCC)CCCCC,1789.892033,-68.2123124
triphenylethylene,C20H16,C1=CC=C(C=C1)C=C(C2=CC=CC=C2)C3=CC=CC=C3,2424.572466,81.26204
triphenylphosphine,C18H15P,C1=CC=C(C=C1)P(C2=CC=CC=C2)C3=CC=CC=C3,2396.752168,76.5297212
tripropylamine,C9H21N,CCCN(CCC)CCC,1090.632179,-38.479966
tritetradecylamine,C42H87N,CCCCCCCCCCCCCCN(CCCCCCCCCCCCCC)CCCCCCCCCCCCCC,5624.767204,-201.4055761
tritriacontane,C33H68,CCCCCCCCCCCCCCCCCCCCCCCCCCCCCCCCC,4859.685097,-173.1478967
1-tritriacontene,C33H66,CCCCCCCCCCCCCCCCCCCCCCCCCCCCCCCC=C,4832.223308,-143.1693741
tritriacontylbenzene,C39H72,CCCCCCCCCCCCCCCCCCCCCCCCCCCCCCCCCC1=CC=CC=C1,5563.223159,-146.2143106
tritriacontylcyclopentane,C38H76,CCCCCCCCCCCCCCCCCCCCCCCCCCCCCCCCCC1CCCC1,5548.309185,-183.358233
1-tritriacontyne,C33H64,CCCCCCCCCCCCCCCCCCCCCCCCCCCCCCCC#C,4813.246231599999,-103.3820453
triundecylamine,C33H69N,CCCCCCCCCCCN(CCCCCCCCCCC)CCCCCCCCCCC,4326.82122,-157.0078215
undecanal,C11H22O,CCCCCCCCCCC=O,1574.5476273999998,-84.1779132
undecane,C11H24,CCCCCCCCCCC,1653.252303,-64.63439258
"1,2-undecanediol",C11H24O2,CCCCCCCCCC(CO)O,1589.3899,-138.6497707
"1,3-undecanediol",C11H24O2,CCCCCCCCC(CCO)O,1589.3899,-138.6497707
"1,11-undecanediol",C11H24O2,C(CCCCCO)CCCCCO,1590.656632,-137.387819
undecanenitrile,C11H20N,CCCCCCCCCCC#N,1202.7737943999998,-25.21274294
undecanoic acid,C11H22O2,CCCCCCCCCCC(=O)O,1502.5590201999998,-147.944714
1-undecanol,C11H24O,CCCCCCCCCCCO,1615.561057,-100.0001104
2-undecanol,C11H24O,CCCCCCCCCC(C)O,1614.533331,-102.2658873
2-undecanone,C11H22O,CCCCCCCCCC(=O)C,1567.592553,-91.6827016
1-undecene,C11H22,CCCCCCCCCC=C,1625.551508,-34.7275718
undecyl acetate,C13H26O2,CCCCCCCCCCCOC(=O)C,1811.593778,-150.57378
undecylamine,C11H25N,CCCCCCCCCCCN,1291.9230323999998,-56.5010184
undecylbenzene,C17H28,CCCCCCCCCCCC1=CC=CC=C1,2356.670862,-37.8346498
undecyl butanoate,C15H30O2,CCCCCCCCCCCOC(=O)CCC,2095.27,-160.2057218
undecylcyclohexane,C17H34,CCCCCCCCCCCC1CCCCC1,2483.200638,-85.6597504
undecylcyclopentane,C16H32,CCCCCCCCCCCC1CCCC1,2342.473905,-74.808878
1-undecylcyclopentene,C16H30,CCCCCCCCCCCC1=CCCC1,2310.447101,-49.4025402
undecyl formate,C12H24O2,CCCCCCCCCCCOC=O,1673.998024,-136.8787362
1-undecylnaphthalene,C21H30,CCCCCCCCCCCC1=CC=CC2=CC=CC=C21,2803.205772,-24.378612
undecyl propanoate,C14H28O2,CCCCCCCCCCCOC(=O)CC,1958.606369,-154.875888
2-undecyne,C11H20,CCCCCCCCC#CC,1602.8220371999998,0.4612815799999999
3-undecyne,C11H20,CCCCCCCC#CCC,1596.416676,0.4612815799999999
valeronitrile,C5H9N,CCCCC#N,626.0284158000001,2.7390087600000004
vanillin,C8H8O3,COC1=C(C=CC(=C1)C=O)O,895.3642772,-88.193214
vinyl acetate,C4H6O2,CC(=O)OC=C,466.6353144,-75.4541942
vinylacetic acid,C4H6O2,C=CCC(=O)O,459.4173332,-80.5928232
vinylacetonitrile,C4H5N,C=CCC#N,505.258684,37.7151468
vinylacetylene,C4H4,C=CC#C,557.0273836,72.8012276
vinyl bromide,C2H3Br,C=CBr,289.81867559999995,18.7380704
vinyl chloride,C2H3Cl,C=CCl,281.5968692,6.811671
vinylcyclohexene,C8H12,C=CC1=CCCCC1,1106.287072,15.5592906
vinyl fluoride,C2H3F,C=CF,241.5872648,-33.1979334
vinyl formate,C3H4O2,C=COC=O,325.6695756,-62.619572
vinyl iodide,C2H3I,C=CI,288.838751,28.12861614
vinyl propionate,C5H8O2,CCC(=O)OC=C,607.7444568000001,-83.02112416
m-xylene,C8H10,CC1=CC(=CC=C1)C,1036.808028,4.1348038
p-xylene,C8H10,CC1=CC=C(C=C1)C,1037.094835,4.302108
"2,3-xylenol",C8H10O,CC1=C(C(=CC=C1)O)C,986.9513763999998,-37.5717432
"2,4-xylenol",C8H10O,CC1=CC(=C(C=C1)O)C,990.7515718,-38.9340774
"2,5-xylenol",C8H10O,CC1=CC(=C(C=C1)C)O,985.3739368,-38.6233696
"2,6-xylenol",C8H10O,CC1=C(C(=CC=C1)C)O,987.2620842,-38.6472702
"3,4-xylenol",C8H10O,CC1=C(C=C(C=C1)O)C,987.0708794,-37.4283396
"3,5-xylenol",C8H10O,CC1=CC(=CC(=C1)O)C,986.6406686,-38.599469