Name,Formula,SMILES,Enthalpy_combustion (kcal/mol),Enthalpy_formation (kcal/mol)
1-octylnaphthalene,C18H24,CCCCCCCCC1=CC=CC2=CC=CC=C21,2364.390756,-8.604216
2-octylnaphthalene,C18H24,CCCCCCCCC1=CC2=CC=CC=C2C=C1,2364.1756502000003,-8.73088918
p-tert-octylphenol,C14H22O,CC(C)(C)CC(C)(C)C1=CC=C(C=C1)O,1865.346228,-69.550746
octyl propanoate,C11H22O2,CCCCCCCCOC(=O)CC,1519.0982353999998,-140.0097148
1-octyne,C8H14,CCCCCCC#C,1168.165726,19.6701938
2-octyne,C8H14,CCCCCC#CC,1163.768015,15.2605331
3-octyne,C8H14,CCCCC#CCC,1163.863618,15.2605331
oleic acid,C18H34O2,CCCCCCCC/C=C\CCCCCCCC(=O)O,2498.066811,-160.5594507
oxalic acid,C2H2O4,C(=O)(C(=O)O)O,72.9207306,-172.9686422
oxazole,C3H3NO,C1=COC=N1,341.1093632,-3.704593
paraldehyde,C6H12O3,CC1OC(OC(O1)C)C,747.8019728,-154.2305718
pentachlorobenzene,C6HCl5,C1=C(C(=C(C(=C1Cl)Cl)Cl)Cl)Cl,569.1210871999999,-6.9550746
pentachloroethane,C2HCl5,C(C(Cl)(Cl)Cl)(Cl)Cl,173.3271512,-34.7992736
pentachlorofluoroethane,C2Cl5F,C(C(Cl)(Cl)Cl)(F)(Cl)Cl,101.9121584,-77.7008506
pentacosane,C25H52,CCCCCCCCCCCCCCCCCCCCCCCCC,3691.758378,-133.683226
1-pentacosene,C25H50,CCCCCCCCCCCCCCCCCCCCCCCC=C,3663.603471,-103.7047034
pentacosylbenzene,C31H56,CCCCCCCCCCCCCCCCCCCCCCCCCC1=CC=CC=C1,4394.197012,-106.7496398
pentacosylcyclohexane,C31H62,CCCCCCCCCCCCCCCCCCCCCCCCCC1CCCCC1,4521.2048,-150.2989231
pentacosylcyclopentane,C30H60,CCCCCCCCCCCCCCCCCCCCCCCCCC1CCCC1,4379.37864,-143.8935623
1-pentacosyne,C25H48,CCCCCCCCCCCCCCCCCCCCCCCC#C,3644.626395,-63.91737458
pentadecanal,C15H30O,CCCCCCCCCCCCCCC=O,2149.04635,-104.1110136
pentadecane,C15H32,CCCCCCCCCCCCCCC,2239.1516116000003,-84.39540866
"1,2-pentadecanediol",C15H32O2,CCCCCCCCCCCCCC(CO)O,2177.010052,-158.382106
"1,4-pentadecanediol",C15H32O2,CCCCCCCCCCCC(CCCO)O,2177.010052,-158.382106
"1,15-pentadecanediol",C15H32O2,C(CCCCCCCO)CCCCCCCO,2178.276783,-157.1201543
pentadecanenitrile,C15H29N,CCCCCCCCCCCCCCC#N,1701.244708,-44.9450783
1-pentadecanethiol,C15H32S,CCCCCCCCCCCCCCCS,2316.852462,-75.3107906
pentadecanoic acid,C15H30O2,CCCCCCCCCCCCCCC(=O)O,2084.801537,-167.782212
1-pentadecanol,C15H32O,CCCCCCCCCCCCCCCO,2189.725171,-119.9332108
2-pentadecanol,C15H32O,CCCCCCCCCCCCCC(C)O,2192.832249,-121.9982226
2-pentadecanone,C15H30O,CCCCCCCCCCCCCC(=O)C,2141.135251,-111.4484978
1-pentadecene,C15H30,CCCCCCCCCCCCCC=C,2211.3313132000003,-54.493368
pentadecyl acetate,C17H34O2,CCCCCCCCCCCCCCCOC(=O)C,2397.038975,-170.3634768
pentadecylamine,C15H33N,CCCCCCCCCCCCCCCN,1769.45702,-76.1951128
pentadecylbenzene,C21H36,CCCCCCCCCCCCCCCC1=CC=CC=C1,2943.430592,-57.6482472
pentadecyl butanoate,C19H38O2,CCCCCCCCCCCCCCCOC(=O)CCC,2678.205634,-179.9954186
pentadecylcyclohexane,C21H42,CCCCCCCCCCCCCCCC1CCCCC1,3055.165897,-105.4255466
pentadecylcyclopentane,C20H40,CCCCCCCCCCCCCCCC1CCCC1,2928.468816,-94.5507736
pentadecyl formate,C16H32O2,CCCCCCCCCCCCCCCOC=O,2259.443221,-156.668433
pentadecyl propanoate,C18H36O2,CCCCCCCCCCCCCCCOC(=O)CC,2532.866085,-174.6655848
1-pentadecyne,C15H28,CCCCCCCCCCCCCC#C,2192.736646,-14.9139744
2-pentadecyne,C15H28,CCCCCCCCCCCCC#CC,2179.806422,-19.27105378
3-pentadecyne,C15H28,CCCCCCCCCCCC#CCC,2180.021527,-19.27105378
"1,2-pentadiene",C5H8,CCC=C=C,728.609791,33.628144199999994
"cis-1,3-pentadiene",C5H8,C/C=C\C=C,714.8191448,19.7896968
"trans-1,3-pentadiene",C5H8,C/C=C/C=C,713.1700034,18.1166548
"1,4-pentadiene",C5H8,C=CCC=C,720.8181954,25.2629342
"2,3-pentadiene",C5H8,CC=C=CC,726.5782399999999,31.8116986
pentaerythritol,C5H12O4,C(C(CO)(CO)CO)O,604.6134781999999,-185.6359602
pentaethylbenzene,C16H26,CCC1=CC(=C(C(=C1CC)CC)CC)CC,2194.624794,-41.86907108
pentafluoroethane,C2HF5,C(C(F)(F)F)(F)F,-47.1080826,-264.10163
"1,1,1,2,2-pentafluoropropane",C3H3F5,CC(C(F)(F)F)(F)F,105.1387394,-263.6953198
"1,1,1,2,3-pentafluoropropane",C3H3F5,C(C(C(F)(F)F)F)F,105.9752604,-262.8587988
"1,1,1,3,3-pentafluoropropane",C3H3F5,C(C(F)F)C(F)(F)F,105.9752604,-262.8587988
"1,1,2,2,3-pentafluoropropane",C3H3F5,C(C(C(F)F)(F)F)F,99.8328062,-262.8587988
"1,1,2,3,3-pentafluoropropane",C3H3F5,C(C(F)F)(C(F)F)F,63.1214846,-299.5223192
"2,2,3,4,4-pentamethyl-3-pentanol",C10H22O,CC(C)(C)C(C)(C(C)(C)C)O,1462.406012,-102.3447593
pentamethylbenzene,C11H16,CC1=CC(=C(C(=C1C)C)C)C,1468.978677,-14.6271672
"2,2,3,3,4-pentamethylheptane",C12H26,CCCC(C)C(C)(C)C(C)(C)C,1801.507725,-68.4991196
"2,2,3,3,5-pentamethylheptane",C12H26,CCC(C)CC(C)(C)C(C)(C)C,1798.998162,-71.1520862
"2,2,3,3,6-pentamethylheptane",C12H26,CC(C)CCC(C)(C)C(C)(C)C,1796.775406,-73.3987426
"2,2,3,4,4-pentamethylheptane",C12H26,CCCC(C)(C)C(C)C(C)(C)C,1802.368147,-67.5908968
"2,2,3,4,5-pentamethylheptane",C12H26,CCC(C)C(C)C(C)C(C)(C)C,1799.882484,-70.267764
"2,2,3,4,6-pentamethylheptane",C12H26,CC(C)CC(C)C(C)C(C)(C)C,1798.089939,-72.179812
"2,2,3,5,5-pentamethylheptane",C12H26,CCC(C)(C)CC(C)C(C)(C)C,1796.560301,-73.733351
"2,2,3,5,6-pentamethylheptane",C12H26,CC(C)C(C)CC(C)C(C)(C)C,1796.153991,-74.1157606
"2,2,3,6,6-pentamethylheptane",C12H26,CC(CCC(C)(C)C)C(C)(C)C,1793.620527,-76.720926
"2,2,4,4,5-pentamethylheptane",C12H26,CCC(C)C(C)(C)CC(C)(C)C,1800.09759,-70.0048574
"2,2,4,4,6-pentamethylheptane",C12H26,CC(C)CC(C)(C)CC(C)(C)C,1798.711355,-71.61336778
"2,2,4,5,5-pentamethylheptane",C12H26,CCC(C)(C)C(C)CC(C)(C)C,1796.847108,-73.4704444
"2,2,4,5,6-pentamethylheptane",C12H26,CC(C)C(C)C(C)CC(C)(C)C,1797.110015,-73.2314384
"2,2,4,6,6-pentamethylheptane",C12H26,CC(CC(C)(C)C)CC(C)(C)C,1795.078464,-75.42551348
"2,2,5,5,6-pentamethylheptane",C12H26,CC(C)C(C)(C)CCC(C)(C)C,1794.409247,-75.9083056
"2,3,3,4,4-pentamethylheptane",C12H26,CCCC(C)(C)C(C)(C)C(C)C,1802.344246,-67.5908968
"2,3,3,4,5-pentamethylheptane",C12H26,CCC(C)C(C)C(C)(C)C(C)C,1802.033538,-67.9733064
"2,3,3,4,6-pentamethylheptane",C12H26,CC(C)CC(C)C(C)(C)C(C)C,1798.806957,-71.3193904
"2,3,3,5,5-pentamethylheptane",C12H26,CCC(C)(C)CC(C)(C)C(C)C,1800.551701,-69.4551436
"2,3,3,5,6-pentamethylheptane",C12H26,CC(C)C(C)CC(C)(C)C(C)C,1798.424548,-71.7735018
"2,3,4,4,5-pentamethylheptane",C12H26,CCC(C)C(C)(C)C(C)C(C)C,1802.057439,-67.9494058
"2,3,4,4,6-pentamethylheptane",C12H26,CC(C)CC(C)(C)C(C)C(C)C,1800.432198,-69.789752
"2,3,4,5,5-pentamethylheptane",C12H26,CCC(C)(C)C(C)C(C)C(C)C,1800.671204,-69.4073424
"2,3,4,5,6-pentamethylheptane",C12H26,CC(C)C(C)C(C)C(C)C(C)C,1799.523975,-70.6023724
"2,4,4,5,5-pentamethylheptane",C12H26,CCC(C)(C)C(C)(C)CC(C)C,1800.049788,-70.0526586
"3,3,4,4,5-pentamethylheptane",C12H26,CCC(C)C(C)(C)C(C)(C)CC,1802.965662,-66.8977794
"3,3,4,5,5-pentamethylheptane",C12H26,CCC(C)(C)C(C)C(C)(C)CC,1803.70658,-66.085159
"2,2,3,3,4-pentamethylhexane",C11H24,CCC(C)C(C)(C)C(C)(C)C,1655.307755,-63.5994966
"2,2,3,3,5-pentamethylhexane",C11H24,CC(C)CC(C)(C)C(C)(C)C,1652.439683,-66.7543758
"2,2,3,4,4-pentamethylhexane",C11H24,CCC(C)(C)C(C)C(C)(C)C,1656.168176,-62.6912738
"2,2,3,4,5-pentamethylhexane",C11H24,CC(C)C(C)C(C)C(C)(C)C,1652.989397,-66.0373578
"2,2,3,5,5-pentamethylhexane",C11H24,CC(CC(C)(C)C)C(C)(C)C,1649.213102,-70.0765592
"2,2,4,4,5-pentamethylhexane",C11H24,CC(C)C(C)(C)CC(C)(C)C,1653.252303,-65.8222524
"2,3,3,4,4-pentamethylhexane",C11H24,CCC(C)(C)C(C)(C)C(C)C,1656.144276,-62.6912738
"2,3,3,4,5-pentamethylhexane",C11H24,CC(C)C(C)C(C)(C)C(C)C,1655.140451,-63.7429002
"2,2,3,3,4-pentamethylpentane",C10H22,CC(C)C(C)(C)C(C)(C)C,1508.438568,-59.07989314
"2,2,3,4,4-pentamethylpentane",C10H22,CC(C(C)(C)C)C(C)(C)C,1508.725375,-59.03926212
pentanal,C5H10O,CCCCC=O,696.5112852,-54.4455668
pentane,C5H12,CCCCC,775.693973,-35.0860808
"1,3-pentanediol",C5H12O2,CCC(CCO)O,692.8544934,-110.420772
"1,4-pentanediol",C5H12O2,CC(CCCO)O,692.3047796,-110.898784
"1,5-pentanediol",C5H12O2,C(CCO)CCO,694.073424,-107.313694
2-pentanethiol,C5H12S,CCCC(C)S,852.0085888,-28.0115032
3-pentanethiol,C5H12S,CCC(CC)S,851.9846881999999,-27.963702
pentanoic acid,C5H10O2,CCCCC(=O)O,628.824786,-118.785982
1-pentanol,C5H12O,CCCCCO,734.5371398,-71.74004096
2-pentanol,C5H12O,CCCC(C)O,731.6212666,-75.0000828
3-pentanol,C5H12O,CCC(CC)O,731.0715528000001,-75.8007529
pentatriacontane,C35H72,CCCCCCCCCCCCCCCCCCCCCCCCCCCCCCCCCCC,5151.893833,-183.0140644
1-pentatriacontene,C35H70,CCCCCCCCCCCCCCCCCCCCCCCCCCCCCCCCCC=C,5124.408143,-153.0355418
pentatriacontylbenzene,C41H76,CCCCCCCCCCCCCCCCCCCCCCCCCCCCCCCCCCCC1=CC=CC=C1,5855.503596,-156.0804782
pentatriacontylcyclopentane,C40H80,CCCCCCCCCCCCCCCCCCCCCCCCCCCCCCCCCCCC1CCCC1,5840.589622,-193.2244007
1-pentatriacontyne,C35H68,CCCCCCCCCCCCCCCCCCCCCCCCCCCCCCCCCC#C,5105.454967,-113.248213
1-pentene,C5H10,CCCC=C,747.969277,-5.0908278
cis-2-pentene,C5H10,CC/C=C\C,746.5830421999999,-6.2858578
trans-2-pentene,C5H10,CC/C=C/C,745.5075152,-7.4330866
1-pentene-3-yne,C5H6,CC#CC=C,693.953921,59.512494
trans-2-pentenoic acid,C5H8O2,CC/C=C/C(=O)O,601.4107978000001,-89.6989518
cis-2-pentenoic acid,C5H8O2,CC/C=C\C(=O)O,597.2042921999999,-89.6989518
trans-3-pentenoic acid,C5H8O2,C/C=C/CC(=O)O,603.0599391999999,-88.2171146
cis-3-pentenoic acid,C5H8O2,C/C=C\CC(=O)O,600.1679666,-88.2171146
4-pentenoic acid,C5H8O2,C=CCCC(=O)O,603.1077404,-88.2410152
pentyl acetate,C7H14O2,CCCCCOC(=O)C,932.8643186,-120.817533
tert-pentyl acetate,C7H14O2,CCC(C)(C)OC(=O)C,925.2878284,-129.2305442
pentylamine,C5H13N,CCCCCN,684.513184,-26.9359762
pentylbenzene,C11H16,CCCCCC1=CC=CC=C1,1478.65842,-8.1023034
pentyl butanoate,C9H18O2,CCCCCOC(=O)CCC,1226.578792,-130.4494748
pentylcyclohexane,C11H22,CCCCCC1CCCCC1,1604.471179,-56.0230064
pentylcyclopentane,C10H20,CCCCCC1CCCC1,1463.935651,-45.172134
1-pentylcyclopentene,C10H18,CCCCCC1=CCCC1,1431.550338,-19.598492
pentyl formate,C6H12O2,CCCCCOC=O,794.5037451999999,-107.1224892
pentyl mercaptan,C5H12S,CCCCCS,853.2753206,-26.2428588
1-pentylnaphthalene,C15H18,CCCCCC1=CC=CC2=CC=CC=C21,1925.217231,7.75096458
2-pentylnaphthalene,C15H18,CCCCCC1=CC2=CC=CC=C2C=C1,1924.978225,7.56932002
pentyl propanoate,C8H16O2,CCCCCOC(=O)CC,1080.235418,-125.119641
1-pentyne,C5H8,CCCC#C,729.3985108,34.5124664
2-pentyne,C5H8,CCC#CC,723.2799571999999,28.8480242
alpha-phellandrene,C10H16,CC1=CCC(C=C1)C(C)C,1400.599061,-2.2227558
beta-phellandrene,C10H16,CC(C)C1CCC(=C)C=C1,1401.459482,-1.35277396
phenanthrene,C14H10,C1=CC=C2C(=C1)C=CC3=CC=CC=C32,1638.38613,49.593745
p-phenetidine,C8H11NO,CCOC1=CC=C(C=C1)N,797.0611094,-24.617618
phenetole,C8H10O,CCOC1=CC=CC=C1,1007.242986,-24.3069102
phenol,C6H6O,C1=CC=C(C=C1)O,700.5743871999999,-23.0401784
"1-phenyl-2,2-dimethylpropane",C11H16,CC(C)(C)CC1=CC=CC=C1,1476.3161613999998,-11.0898784
1-phenyl-2-methylbutane,C11H16,CCC(C)CC1=CC=CC=C1,1477.176583,-9.799246
2-phenyl-2-methylbutane,C11H16,CCC(C)(C)C1=CC=CC=C1,1477.080981,-10.17926554
2-phenyl-2-propanol,C9H12O,CC(C)(C1=CC=CC=C1)O,1120.292824,-72.89683
1-phenyl-3-methylbutane,C11H16,CC(C)CCC1=CC=CC=C1,1477.128782,-9.799246
2-phenyl-3-methylbutane,C11H16,CC(C)C(C)C1=CC=CC=C1,1476.65077,-10.6118664
m-phenylenediamine,C6H8N2,C1=CC(=CC(=C1)N)N,529.9002026,21.7973472
p-phenylenediamine,C6H8N2,C1=CC(=CC=C1N)N,527.7013474,21.7973472
2-phenylethanol,C8H10O,C1=CC=C(C=C1)CCO,1000.264011,-28.919726
1-phenylhexadecane,C22H38,CCCCCCCCCCCCCCCCC1=CC=CC=C1,3078.923093,-62.40924672
phenylhydrazine,C6H8N2,C1=CC=C(C=C1)NN,560.4929705999999,48.637721
phenyl isocyanate,C7H5NO,C1=CC=C(C=C1)N=C=O,599.7616564,-5.2820326
phenyl mercaptan,C6H6S,C1=CC=C(C=C1)S,825.7896306,26.649169
1-phenylnaphthalene,C16H12,C1=CC=C(C=C1)C2=CC=CC3=CC=CC=C32,1891.589086,59.034482
2-phenylpentane,C11H16,CCCC(C)C1=CC=CC=C1,1478.132607,-8.9866256
3-phenylpentane,C11H16,CCC(CC)C1=CC=CC=C1,1478.1565076000002,-8.9388244
1-phenyltetradecane,C20H34,CCCCCCCCCCCCCCC1=CC=CC=C1,2797.087218,-119.5508012
phosgene,CCl2O,C(=O)(Cl)Cl,41.2763362,-52.7725248
phthalic acid,C8H6O4,C1=CC=C(C(=C1)C(=O)O)C(=O)O,742.233133,-158.53985
phthalic anhydride,C8H4O3,C1=CC=C2C(=C1)C(=O)OC2=O,755.8325744,-93.96042878
alpha-pinene,C10H16,CC1=CCC2CC1C2(C)C,1401.053172,6.7638698
beta-pinene,C10H16,CC1(C2CCC(=C)C1C2)C,1403.036922,9.2495322
piperazine,C4H10N2,C1CNCCN1,514.5082162,5.3298338
piperidine,C5H11N,C1CCNCC1,649.976817,-11.6873934
propane,C3H8,CCC,488.289258,-25.0239282
"1,2-propanediamine",C3H10N2,CC(CN)N,464.6515646,-12.82984208
"1,3-propanediol",C3H8O2,C(CO)CO,401.7212848,-97.753454
propanoic acid,C3H6O2,CCC(=O)O,339.8426314,-108.2219168
propargyl alcohol,C3H4O,C#CCO,397.705984,10.0860532
propargyl chloride,C3H3Cl,C#CCCl,397.5625804,38.001954
cis-1-propenylbenzene,C9H10,C/C=C\C1=CC=CC=C1,1155.1398986000002,28.9914278
trans-1-propenylbenzene,C9H10,C/C=C/C1=CC=CC=C1,1154.159974,28.0115032
2-propenylbenzene,C9H10,C=CCC1=CC=CC=C1,1159.442007,32.982828
beta-propiolactone,C3H4O2,C1COC1=O,316.443944,-70.99912236
propionaldehyde,C3H6O,CCC=O,404.2308478,-44.455116
propionic anhydride,C6H10O3,CCC(=O)OC(=O)CC,693.2847042,-149.737259
propionitrile,C3H5N,CCC#N,398.2317972,12.308809
"2-propyl-1,3-propanediol",C6H14O2,CCCC(CO)CO,842.8068578,-112.8347326
"2-propyl-1,4-butanediol",C7H16O2,CCCC(CCO)CO,989.2936352,-117.8060574
2-propyl-1-heptanol,C10H22O,CCCCCC(CCC)CO,1466.923226,-97.33280344
2-propyl-1-hexanol,C9H20O,CCCCC(CCC)CO,1320.794957,-92.3997196
3-propyl-1-hexanol,C9H20O,CCCC(CCC)CCO,1320.794957,-92.3997196
2-propyl-1-pentanol,C8H18O,CCCC(CCC)CO,1174.212577,-87.46663576
2-propyl-1-pentene,C8H16,CCCC(=C)CCC,1184.513736,-22.18214686
4-propyl-4-heptanol,C10H22O,CCCC(CCC)(CCC)O,1466.923226,-98.16215426
propyl acetate,C5H10O2,CCCOC(=O)C,639.8668631999999,-111.0899888
propyl acrylate,C6H10O2,CCCOC(=O)C=C,754.0878306,-86.998184
propyl alcohol,C3H8O,CCCO,442.4240066,-60.9943312
propylamine,C3H9N,CCCN,477.294982,-16.7543206
propylbenzene,C9H12,CCCC1=CC=CC=C1,1185.9238713999998,1.89053746
propyl butanoate,C7H14O2,CCCC(=O)OCCC,933.1511258,-120.7697318
propyl butyl sulfide,C7H16S,CCCCSCCC,1147.730713,-34.88053564
propylcyclohexane,C9H18,CCCC1CCCCC1,1311.664928,-46.1759592
propylcyclopentane,C8H16,CCCC1CCCC1,1171.057698,-35.38961842
1-propylcyclopentene,C8H14,CCCC1=CCCC1,1138.959192,-9.6558424
propylcyclopropane,C6H12,CCCC1CC1,899.9053911999999,-4.1587044
propylene,C3H6,CC=C,460.2299536,4.7084182
propyleneimine,C3H7N,CC1CN1,459.7997428,21.2237328
"1,2-propylene oxide",C3H6O,CC1CO1,426.7213124,-22.17019656
"1,3-propylene oxide",C3H6O,C1COC1,437.5721848,-17.93979036
propyl formate,C4H8O2,CCCOC=O,502.2950096,-97.4188456
4-propylheptane,C10H22,CCCC(CCC)CCC,1507.076234,-60.00962648
propyl heptyl sulfide,C10H22S,CCCCCCCSCCC,1585.924313,-49.66066668
propyl isocyanide,C4H7N,CCC[N+]#[C-],525.0483808,14.579366
propylisopropylamine,C6H15N,CCCNC(C)C,775.096458,-30.114756
propyl isopropyl ether,C6H14O,CCCOC(C)C,888.3614014,-73.1836372
propyl mercaptan,C3H8S,CCCS,560.9948832,-16.132905
propyl methacrylate,C7H12O2,CCCOC(=O)C(=C)C,896.7983131999999,-96.080412
1-propylnaphthalene,C13H14,CCCC1=CC=CC2=CC=CC=C21,1632.745588,17.848968080000002
2-propylnaphthalene,C13H14,CCCC1=CC2=CC=CC=C2C=C1,1632.434881,17.55977082
propyl nitrate,C3H7NO3,CCCO[N+](=O)[O-],403.6333328,-41.5989943
4-propylnonane,C12H26,CCCCCC(CCC)CCC,1800.001987,-70.028758
5-propylnonane,C12H26,CCCCC(CCC)CCCC,1800.049788,-70.028758
4-propyloctane,C11H24,CCCCC(CCC)CCC,1653.395707,-65.0813338
2-propylphenol,C9H12O,CCCC1=CC=CC=C1O,1141.612159,-40.59994922
3-propylphenol,C9H12O,CCCC1=CC(=CC=C1)O,1136.425729,-40.59994922
4-propylphenol,C9H12O,CCCC1=CC=C(C=C1)O,1141.277551,-40.59994922
propyl propanoate,C6H12O2,CCCOC(=O)CC,787.046758,-115.4637986
2-propylthiophene,C7H10S,CCCC1=CC=CS1,1019.264988,10.12429416
3-propylthiophene,C7H10S,CCCC1=CSC=C1,1019.217186,10.12429416
pyrene,C16H10,C1=CC2=C3C(=C1)C=CC4=CC=CC(=C43)C=C2,1829.662632,53.9436542
pyridine,C5H5N,C1=CC=NC=C1,562.5245216,33.5564424
pyrocatechol,C6H6O2,C1=CC=C(C(=C1)O)O,654.159422,-65.009632
pyromellitic acid,C10H6O8,C1=C(C(=CC(=C1C(=O)O)C(=O)O)C(=O)O)C(=O)O,721.0572014,-353.72888
pyrrole,C4H5N,C1=CNC=C1,492.6152666,25.8604492
pyrrolidine,C4H9N,C1CCNC1,556.7883776,-0.836521
2-pyrrolidone,C4H7NO,C1CC(=O)NC1,470.6506152,-47.1200329
pyruvic acid,C3H4O3,CC(=O)C(=O)O,237.4285604,-149.37875
quinoline,C9H7N,C1=CC=C2C(=C1)C=CC=N2,815.0821618,53.1310338
resorcinol,C6H6O2,C1=CC(=CC(=C1)O)O,651.5781572,-65.7027494
salicylaldehyde,C7H6O2,C1=CC=C(C(=C1)C=O)O,768.165284,-51.3743397
salicylic acid,C7H6O3,C1=CC=C(C(=C1)C(=O)O)O,700.9328962,-111.4604481
sebacic acid,C10H18O4,C(CCCCC(=O)O)CCCC(=O)O,1212.1667301999998,-220.3396314
sorbitol,C6H14O6,C([C@H]([C@H]([C@@H]([C@H](CO)O)O)O)O)O,657.3382018,-272.46684
spiropentane,C5H8,C1CC12CC2,739.2933591999999,44.2639112
cis-stilbene,C14H12,C1=CC=C(C=C1)/C=C\C2=CC=CC=C2,1710.565942,58.59949108
trans-stilbene,C14H12,C1=CC=C(C=C1)/C=C/C2=CC=CC=C2,1701.292509,57.600446
styrene,C8H8,C=CC1=CC=CC=C1,1010.254461,35.4445898
succinic acid,C4H6O4,C(CC(=O)O)C(=O)O,327.43822,-196.6780374
succinic anhydride,C4H4O3,C1CC(=O)OC1=O,348.68585340000004,-125.2630446
t-butyl hydroperoxide,C4H10O2,CC(C)(C)OO,597.5389005999999,-58.078458
tartaric acid,C4H6O6,C(C(C(=O)O)O)(C(=O)O)O,238.288982,-277.24696
terephthalic acid,C8H6O4,C1=CC(=CC=C1C(=O)O)C(=O)O,724.5705896,-171.5824074
m-terphenyl,C18H14,C1=CC=C(C=C1)C2=CC(=CC=C2)C3=CC=CC=C3,2142.545386,66.204662
p-terphenyl,C18H14,C1=CC=C(C=C1)C2=CC=C(C=C2)C3=CC=CC=C3,2140.035823,66.204662
alpha-terpinene,C10H16,CC1=CC=C(CC1)C(C)C,1397.898293,-4.9235236
gamma-terpinene,C10H16,CC1=CCC(=CC1)C(C)C,1400.025446,-2.7963702
"1,1,2,2-tetrabromoethane",C2H2Br4,C(C(Br)Br)(Br)Br,221.8931704,2.60038528
"1,1,1,2-tetrabromoethane",C2H2Br4,C(C(Br)(Br)Br)Br,221.5107608,2.8585117600000003
"1,1,1,2-tetrabromopropane",C3H4Br4,CC(C(Br)(Br)Br)Br,363.9583368,-3.33652376
"1,1,1,3-tetrabromopropane",C3H4Br4,C(CBr)C(Br)(Br)Br,364.0300386,-2.07457208
"1,1,2,2-tetrabromopropane",C3H4Br4,CC(C(Br)Br)(Br)Br,364.3407464,-3.33652376
"1,1,2,3-tetrabromopropane",C3H4Br4,C(C(C(Br)Br)Br)Br,363.2413188,-2.50717294
"1,1,3,3-tetrabromopropane",C3H4Br4,C(C(Br)Br)C(Br)Br,362.9784122,-2.50717294
"1,2,2,3-tetrabromopropane",C3H4Br4,C(C(CBr)(Br)Br)Br,368.4038484,-2.07457208
"1,1,2,2-tetrachloro-1,2-difluoroethane",C2Cl4F2,C(C(F)(Cl)Cl)(F)(Cl)Cl,57.4092412,-122.2037678
"1,1,2,2-tetrachloro-1-fluoroethane",C2HCl4F,C(C(F)(Cl)Cl)(Cl)Cl,123.4226984,-85.49483626
"1,1,1,2-tetrachloro-2,2-difluoroethane",C2Cl4F2,C(C(Cl)(Cl)Cl)(F)(F)Cl,55.4732926,-124.2114182
"1,1,1,2-tetrachloro-2-fluoroethane",C2HCl4F,C(C(Cl)(Cl)Cl)(F)Cl,123.4226984,-85.49483626
"1,2,3,4-tetrachlorobenzene",C6H2Cl4,C1=CC(=C(C(=C1Cl)Cl)Cl)Cl,604.207168,-2.2944576
"1,2,3,5-tetrachlorobenzene",C6H2Cl4,C1=C(C=C(C(=C1Cl)Cl)Cl)Cl,601.5542014,-4.8040206
"1,2,4,5-tetrachlorobenzene",C6H2Cl4,C1=C(C(=CC(=C1Cl)Cl)Cl)Cl,599.2119425999999,-5.5927404
"1,1,1,2-tetrachloroethane",C2H2Cl4,C(C(Cl)(Cl)Cl)Cl,201.721064,-35.7074964
"1,1,2,2-tetrachloroethane",C2H2Cl4,C(C(Cl)Cl)(Cl)Cl,201.0757478,-35.611894
tetrachloroethylene,C2Cl4,C(=C(Cl)Cl)(Cl)Cl,177.0078436,-2.8919726
"1,1,1,2-tetrachloropropane",C3H4Cl4,CC(C(Cl)(Cl)Cl)Cl,345.4353718,-43.55645344
"1,1,1,3-tetrachloropropane",C3H4Cl4,C(CCl)C(Cl)(Cl)Cl,346.439197,-42.29450176
"1,1,2,2-tetrachloropropane",C3H4Cl4,CC(C(Cl)Cl)(Cl)Cl,345.3397694,-43.55645344
"1,1,2,3-tetrachloropropane",C3H4Cl4,C(C(C(Cl)Cl)Cl)Cl,345.483173,-42.72710262
"1,1,3,3-tetrachloropropane",C3H4Cl4,C(C(Cl)Cl)C(Cl)Cl,345.7460796,-42.72710262
"1,2,2,3-tetrachloropropane",C3H4Cl4,C(C(CCl)(Cl)Cl)Cl,346.319694,-42.29450176
tetracontane,C40H82,CCCCCCCCCCCCCCCCCCCCCCCCCCCCCCCCCCCCCCCC,5882.511274,-207.6794836
1-tetracontene,C40H80,CCCCCCCCCCCCCCCCCCCCCCCCCCCCCCCCCCCCCCC=C,5855.049485,-177.700961
1-tetracontyne,C40H78,CCCCCCCCCCCCCCCCCCCCCCCCCCCCCCCCCCCCCCC#C,5836.096309,-137.9136322
tetracosane,C24H50,CCCCCCCCCCCCCCCCCCCCCCCC,3545.773513,-128.7501421
1-tetracosene,C24H48,CCCCCCCCCCCCCCCCCCCCCCC=C,3517.570805,-98.77161956
tetracosylbenzene,C30H54,CCCCCCCCCCCCCCCCCCCCCCCCC1=CC=CC=C1,4248.092644,-101.816556
tetracosylcyclohexane,C30H60,CCCCCCCCCCCCCCCCCCCCCCCCC1CCCCC1,4375.243836,-145.3658393
tetracosylcyclopentane,C29H58,CCCCCCCCCCCCCCCCCCCCCCCCC1CCCC1,4233.298173,-138.9604785
1-tetracosyne,C24H46,CCCCCCCCCCCCCCCCCCCCCCC#C,3498.593729,-58.98429074
tetradecanal,C14H28O,CCCCCCCCCCCCCC=O,2026.627476,-99.1396888
tetradecane,C14H30,CCCCCCCCCCCCCC,2092.688735,-79.45515464
"1,2-tetradecanediol",C14H30O2,CCCCCCCCCCCCC(CO)O,2030.116964,-153.4490222