Name,Formula,SMILES,Enthalpy_combustion (kcal/mol),Enthalpy_formation (kcal/mol)
1-chloro-2-methylpropane,C4H9Cl,CC(C)CCl,588.2176665999999,-41.109032
2-chloro-2-methylpropane,C4H9Cl,CC(C)(C)Cl,585.6364018,-44.1683088
"1-chloro-3,3-dimethylbutane",C6H13Cl,CC(C)(C)CCCl,886.234248,-45.80788996
trans-1-chloro-3-methyl-1-butene,C5H9Cl,CC(C)/C=C/Cl,710.8516451999999,-12.02917198
2-chloro-3-methyl-1-butene,C5H9Cl,CC(C)C(=C)Cl,710.564838,-12.40680146
3-chloro-3-methyl-1-butene,C5H9Cl,CC(C)(C=C)Cl,712.357383,-10.89628354
4-chloro-3-methyl-1-butene,C5H9Cl,CC(CCl)C=C,712.8114944,-10.06693272
1-chloro-3-methyl-2-butene,C5H9Cl,CC(=CCCl)C,709.3937086,-13.10708904
2-chloro-3-methyl-2-butene,C5H9Cl,CC(=C(C)Cl)C,707.45776,-15.44695778
1-chloro-3-methylbutane,C5H11Cl,CC(C)CCCl,737.3813111999999,-43.09995198
2-chloro-3-methylbutane,C5H11Cl,CC(C)C(C)Cl,735.2780584,-45.41114
1-chloro-3-methylpentane,C6H13Cl,CCC(C)CCCl,886.6644588,-44.97853914
2-chloro-3-methylpentane,C6H13Cl,CCC(C)C(C)Cl,885.9474408,-46.24049082
3-chloro-3-methylpentane,C6H13Cl,CCC(C)(CC)Cl,886.2581485999999,-45.80788996
4-chloro-3-nitrobenzotrifluoride,C7H3ClF3NO2,C1=CC(=C(C=C1C(F)(F)F)[N+](=O)[O-])Cl,406.549206,-151.5895555
1-chloro-4-methylpentane,C6H13Cl,CC(C)CCCCl,886.7600612,-44.97853914
2-chloro-4-methylpentane,C6H13Cl,CC(C)CC(C)Cl,885.8279378000001,-46.24049082
chloroacetaldehyde,C2H3ClO,C(C=O)Cl,229.1350522,-45.650146
chloroacetic acid,C2H3ClO2,C(C(=O)O)Cl,157.0508426,-104.0154112
chloroacetyl chloride,C2H2Cl2O,C(C(=O)Cl)Cl,178.537482,-58.6998736
m-chloroaniline,C6H6ClN,C1=CC(=CC(=C1)Cl)N,607.9356616,13.6950438
p-chloroaniline,C6H6ClN,C1=CC(=CC=C1N)Cl,602.3429212,13.6950438
chlorobenzene,C6H5Cl,C1=CC=C(C=C1)Cl,712.4290848,12.2132066
p-chlorobenzotrifluoride,C7H4ClF3,C1=CC(=CC=C1C(F)(F)F)Cl,617.0656908000001,-148.1000679
m-chlorobenzoyl chloride,C7H4Cl2O,C1=CC(=CC(=C1)Cl)C(=O)Cl,723.2560566,-39.51008186
1-chlorobutane,C4H9Cl,CCCCCl,593.7148046,-35.20080368
2-chlorobutane,C4H9Cl,CCC(C)Cl,590.6794284,-38.599469
1-chlorodecane,C10H21Cl,CCCCCCCCCCCl,1470.842924,-65.70035934
chlorodifluoromethane,CHClF2,C(F)(F)Cl,7.5525896,-115.3920968
1-chlorodocosane,C22H45Cl,CCCCCCCCCCCCCCCCCCCCCCCl,3218.311392,-123.0617993
1-chlorododecane,C12H25Cl,CCCCCCCCCCCCCl,1764.390093,-75.26059934
1-chlorodotriacontane,C32H65Cl,CCCCCCCCCCCCCCCCCCCCCCCCCCCCCCCCCl,4680.621802,-170.8629993
1-chloroeicosane,C20H41Cl,CCCCCCCCCCCCCCCCCCCCCl,2925.959253,-113.5015593
2-chloroethanol,C2H5ClO,C(CCl)O,259.9907268,-62.619572
chlorofluoromethane,CH2ClF,C(F)Cl,88.33661760000001,-63.5038942
chloroform,CHCl3,C(Cl)(Cl)Cl,91.2285902,-24.5937174
1-chloroheneicosane,C21H43Cl,CCCCCCCCCCCCCCCCCCCCCCl,3072.135323,-118.2816793
1-chlorohentriacontane,C31H63Cl,CCCCCCCCCCCCCCCCCCCCCCCCCCCCCCCCl,4534.374031,-166.0828793
1-chloroheptacosane,C27H55Cl,CCCCCCCCCCCCCCCCCCCCCCCCCCCCl,3949.382945,-146.9623993
1-chloroheptadecane,C17H35Cl,CCCCCCCCCCCCCCCCCCl,2487.407144,-99.16119934
1-chloroheptane,C7H15Cl,CCCCCCCCl,1031.31089,-51.35999934
1-chloroheptatriacontane,C37H75Cl,CCCCCCCCCCCCCCCCCCCCCCCCCCCCCCCCCCCCCCl,5366.999233,-239.7469186
1-chlorohexacosane,C26H53Cl,CCCCCCCCCCCCCCCCCCCCCCCCCCCl,3803.159074,-142.1822793
1-chlorohexadecane,C16H33Cl,CCCCCCCCCCCCCCCCCl,2351.173724,-94.38107934
1-chlorohexane,C6H13Cl,CCCCCCCl,887.7160852,-43.71658746
2-chlorohexane,C6H13Cl,CCCCC(C)Cl,886.7600612,-44.97853914
3-chlorohexane,C6H13Cl,CCCC(CC)Cl,886.7839618,-44.97853914
1-chlorohexatriacontane,C36H73Cl,CCCCCCCCCCCCCCCCCCCCCCCCCCCCCCCCCCCCCl,5265.732391,-189.9834793
1-chloronaphthalene,C10H7Cl,C1=CC=C2C(=C1)C=CC=C2Cl,1159.5854101999998,28.6329188
m-chloronitrobenzene,C6H4ClNO2,C1=CC(=CC(=C1)Cl)[N+](=O)[O-],541.9939062,8.891023200000001
p-chloronitrobenzene,C6H4ClNO2,C1=CC(=CC=C1[N+](=O)[O-])Cl,542.2568128,8.891023200000001
1-chlorononacosane,C29H59Cl,CCCCCCCCCCCCCCCCCCCCCCCCCCCCCCl,4241.878488,-156.5226393
1-chlorononadecane,C19H39Cl,CCCCCCCCCCCCCCCCCCCCl,2779.735382,-108.7214393
1-chlorononane,C9H19Cl,CCCCCCCCCCl,1324.3083453999998,-60.92023934
1-chlorononatriacontane,C39H79Cl,CCCCCCCCCCCCCCCCCCCCCCCCCCCCCCCCCCCCCCCCl,5704.595208,-204.3238393
1-chlorooctacosane,C28H57Cl,CCCCCCCCCCCCCCCCCCCCCCCCCCCCCl,4095.630717,-151.7425193
1-chlorooctadecane,C18H37Cl,CCCCCCCCCCCCCCCCCCCl,2633.559313,-103.9413193
1-chlorooctane,C8H17Cl,CCCCCCCCCl,1177.797667,-56.14011934
1-chlorooctatriacontane,C38H77Cl,CCCCCCCCCCCCCCCCCCCCCCCCCCCCCCCCCCCCCCCl,5558.299635400001,-199.5437193
1-chloropentacosane,C25H51Cl,CCCCCCCCCCCCCCCCCCCCCCCCCCl,3656.935204,-137.4021593
1-chloropentadecane,C15H31Cl,CCCCCCCCCCCCCCCCl,2204.44794,-89.60095934
chloropentafluoroethane,C2ClF5,C(C(F)(F)Cl)(F)(F)F,-80.306016,-268.403738
1-chloropentane,C5H11Cl,CCCCCCl,738.5046394,-41.79975934
2-chloropentane,C5H11Cl,CCCC(C)Cl,738.4807388,-42.065056
3-chloropentane,C5H11Cl,CCC(CC)Cl,736.1623806,-44.3595136
1-chloropentatriacontane,C35H71Cl,CCCCCCCCCCCCCCCCCCCCCCCCCCCCCCCCCCCCl,5119.436818,-185.2033593
m-chlorophenol,C6H5ClO,C1=CC(=CC(=C1)Cl)O,657.6011084,-36.6396198
p-chlorophenol,C6H5ClO,C1=CC(=CC=C1O)Cl,659.3219515999999,-34.8470748
chloroprene,C4H5Cl,C=CC(=C)Cl,520.555068,6.5487644
1-chloropropane,C3H7Cl,CCCCl,446.224202,-31.5248914
2-chloropropane,C3H7Cl,CC(C)Cl,443.4278318,-34.6080688
1-chlorotetracontane,C40H81Cl,CCCCCCCCCCCCCCCCCCCCCCCCCCCCCCCCCCCCCCCCCl,5850.890781,-209.1039593
1-chlorotetracosane,C24H49Cl,CCCCCCCCCCCCCCCCCCCCCCCCCl,3510.735233,-132.6220393
1-chlorotetradecane,C14H29Cl,CCCCCCCCCCCCCCCl,2057.746058,-84.82083934
1-chlorotetratriacontane,C34H69Cl,CCCCCCCCCCCCCCCCCCCCCCCCCCCCCCCCCCCl,4973.165146,-180.4232393
p-chlorotoluene,C7H7Cl,CC1=CC=C(C=C1)Cl,855.6653805999999,4.3499092
m-chlorotoluene,C7H7Cl,CC1=CC(=CC=C1)Cl,855.8326848,4.3499092
1-chlorotriacontane,C30H61Cl,CCCCCCCCCCCCCCCCCCCCCCCCCCCCCCCl,4388.126259,-161.3027593
1-chlorotricosane,C23H47Cl,CCCCCCCCCCCCCCCCCCCCCCCCl,3364.511363,-127.8419193
1-chlorotridecane,C13H27Cl,CCCCCCCCCCCCCCl,1911.068075,-80.04071934
chlorotrifluoroethylene,C2ClF3,C(=C(F)Cl)(F)F,67.3040896,-120.7936324
chlorotrifluoromethane,CClF3,C(F)(F)(F)Cl,-74.2591642,-168.3080252
1-chlorotritriacontane,C33H67Cl,CCCCCCCCCCCCCCCCCCCCCCCCCCCCCCCCCCl,4826.893474,-175.6431193
1-chloroundecane,C11H23Cl,CCCCCCCCCCCCl,1617.377503,-70.48047934
chrysene,C18H12,C1=CC=C2C(=C1)C=CC3=C2C=CC4=CC=CC=C43,2081.383751,64.48381880000001
citraconic acid,C5H6O4,C/C(=C/C(=O)O)/C(=O)O,466.7548174,-176.86444
citric acid,C6H8O7,C(C(=O)O)C(CC(=O)O)(C(=O)O)O,463.2414292,-332.21834
m-cresol,C7H8O,CC1=CC(=CC=C1)O,846.2485442,-31.6204938
p-cresol,C7H8O,CC1=CC=C(C=C1)O,844.6711045999999,-29.9474518
trans-crotonaldehyde,C4H6O,C/C=C/C=O,516.3963636,-24.856624
cumene,C9H12,CC(C)C1=CC=CC=C1,1185.039549,0.956024
cumene hydroperoxide,C9H12O2,CC(C)(C1=CC=CC=C1)OO,1163.815816,-18.7380704
p-cumylphenol,C15H16O,CC(C)(C1=CC=CC=C1)C2=CC=C(C=C2)O,1837.597631,-15.6787936
cyanogen,C2N2,C(#N)C#N,217.7105654,73.82895339999999
cyanogen chloride,CClN,C(#N)Cl,124.9284362,31.5965932
cyclobutane,C4H8,C1CCC1,614.1498176,6.787770399999999
cyclobutene,C4H6,C1CC=C1,587.0226365999999,37.4522402
cyclodecane,C10H20,C1CCCCCCCCC1,1471.798948,-36.8786258
cyclododecane,C12H24,C1CCCCCCCCCCC1,1767.06696,-55.0191812
cycloeicosane,C20H40,C1CCCCCCCCCCCCCCCCCCC1,2911.7383962000004,-111.7854963
cycloheptadecane,C17H34,C1CCCCCCCCCCCCCCCC1,2494.218815,-87.0698858
cycloheptane,C7H14,C1CCCCCC1,1026.650273,-28.2266086
"1,3,5-cycloheptatriene",C7H8,C1C=CC=CC=C1,924.3079038,43.2361854
cyclohexadecane,C16H32,C1CCCCCCCCCCCCCCC1,2352.559959,-76.8882302
"1,3-cyclohexadiene",C6H8,C1CC=CC=C1,813.5286228,25.3824372
cyclohexane,C6H12,C1CCCCC1,874.403451,-29.4933404
"1,4-cyclohexanedicarboxylic acid",C8H12O4,C1CC(CCC1C(=O)O)C(=O)O,863.1462684,-209.608262
cyclohexanol,C6H12O,C1CCC(CC1)O,831.5257746,-68.5469208
cyclohexanone,C6H10O,C1CCC(=O)CC1,790.034333,-53.9436542
cyclohexanone oxime,C6H11NO,C1CCC(=NO)CC1,675.9567691999999,-46.367164
cyclohexene,C6H10,C1CCC=CC1,844.6233034,-1.19503
cyclohexylamine,C6H13N,C1CCC(CC1)N,740.4644886,-25.0717294
cyclohexylbenzene,C12H16,C1CCC(CC1)C2=CC=CC=C2,1574.64323,-5.00000552
cyclohexyl isocyanate,C7H11NO,C1CCC(CC1)N=C=O,745.9138254000001,-33.46084
cyclononadecane,C19H38,C1CCCCCCCCCCCCCCCCCC1,2766.542251,-105.3801355
cyclononane,C9H18,C1CCCCCCCC1,1325.575077,-31.7399968
cyclooctadecane,C18H36,C1CCCCCCCCCCCCCCCCC1,2634.156828,-98.97477466
"1,5-cyclooctadiene",C8H12,C1/C=C\CC/C=C\C1,1114.365475,24.1635066
cyclooctane,C8H16,C1CCCCCCC1,1176.411433,-29.7323464
"1,3,5,7-cyclooctatetraene",C8H8,C\1=C\C=C/C=C\C=C1,1046.081461,71.23095817999999
cyclopentadecane,C15H30,C1CCCCCCCCCCCCCC1,2205.571269,-72.0364084
cyclopentadiene,C5H6,C1C=CC=C1,669.5514084,32.098505800000005
cyclopentane,C5H10,C1CCCC1,734.2503326,-18.4273626
cyclopentanethiol,C5H10S,C1CCC(C1)S,810.2781411999999,-11.4244868
cyclopentanone,C5H8O,C1CCC(=O)C1,646.51123,-45.9130526
cyclopentene,C5H8,C1CC=CC1,702.916646,8.1023034
cyclopropane,C3H6,C1CC1,468.2605552,12.7390198
cyclotetradecane,C14H28,C1CCCCCCCCCCCCC1,2068.59693,-57.1702352
cyclotridecane,C13H26,C1CCCCCCCCCCCC1,1903.873995,-58.8910784
cycloundecane,C11H22,C1CCCCCCCCCC1,1617.305801,-42.8776764
m-cymene,C10H14,CC1=CC(=CC=C1)C(C)C,1328.299746,-7.3852854
p-cymene,C10H14,CC1=CC=C(C=C1)C(C)C,1328.610453,-6.931174
d-limonene,C10H16,CC1=CC[C@@H](CC1)C(=C)C,1391.947043,-1.5296384
decafluorobutane,C4F10,C(C(C(F)(F)F)(F)F)(C(F)(F)F)(F)F,-135.277396,-511.47284
cis-decahydronaphthalene,C10H18,C1CCC2CCCCC2C1,1410.661213,-40.4398152
trans-decahydronaphthalene,C10H18,C1CCC2CCCCC2C1,1407.864843,-43.5229926
decanal,C10H20O,CCCCCCCCCC=O,1427.965248,-79.2782902
decane,C10H22,CCCCCCCCCC,1507.004532,-59.631997
"1,2-decanediol",C10H22O2,CCCCCCCCC(CO)O,1442.472912,-133.7166868
"1,3-decanediol",C10H22O2,CCCCCCCC(CCO)O,1442.472912,-133.7166868
"1,4-decanediol",C10H22O2,CCCCCCC(CCCO)O,1442.472912,-133.7166868
"1,10-decanediol",C10H22O2,C(CCCCCO)CCCCO,1443.739644,-132.4547351
decanenitrile,C10H19N,CCCCCCCCCC#N,1122.730685,-20.2796591
2-decanethiol,C10H22S,CCCCCCCCC(C)S,1583.749358,-52.6769224
decanoic acid,C10H20O2,CCCCCCCCCC(=O)O,1355.020616,-142.0412658
1-decanol,C10H22O,CCCCCCCCCCO,1468.715771,-94.9809844
2-decanol,C10H22O,CCCCCCCCC(C)O,1468.0704543999998,-97.33280344
3-decanol,C10H22O,CCCCCCCC(CC)O,1467.11443,-97.33280344
4-decanol,C10H22O,CCCCCCC(CCC)O,1467.11443,-97.33280344
5-decanol,C10H22O,CCCCCC(CCCC)O,1467.353436,-97.33280344
2-decanone,C10H20O,CCCCCCCCC(=O)C,1420.938471,-86.7352774
1-decene,C10H20,CCCCCCCCC=C,1479.208134,-29.80165814
decyl acetate,C12H24O2,CCCCCCCCCCOC(=O)C,1665.585013,-145.6263558
decylamine,C10H23N,CCCCCCCCCCN,1180.833044,-51.5774948
decylbenzene,C16H26,CCCCCCCCCCC1=CC=CC=C1,2210.42309,-32.863325
decyl butanoate,C14H28O2,CCCCCCCCCCOC(=O)CCC,1958.797574,-155.2582976
decylcyclohexane,C16H32,CCCCCCCCCCC1CCCCC1,2336.66606,-80.7362268
decylcyclopentane,C15H30,CCCCCCCCCCC1CCCC1,2196.05883,-69.8375532
1-decylcyclopentene,C15H28,CCCCCCCCCCC1=CCCC1,2163.936423,-44.4312154
decyl formate,C11H22O2,CCCCCCCCCCOC=O,1527.296141,-131.931312
decyl mercaptan,C10H22S,CCCCCCCCCCS,1585.4224003999998,-50.4063654
1-decylnaphthalene,C20H28,CCCCCCCCCCC1=CC=CC2=CC=CC=C21,2656.910199,-19.12048
2-decylnaphthalene,C20H28,CCCCCCCCCCC1=CC2=CC=CC=C2C=C1,2656.695094,-19.24715318
decyl propanoate,C13H26O2,CCCCCCCCCCOC(=O)CC,1812.239094,-149.9284638
1-decyne,C10H18,CCCCCCCCC#C,1460.948076,9.799246
2-decyne,C10H18,CCCCCCCC#CC,1450.527414,5.39436542
3-decyne,C10H18,CCCCCCC#CCC,1450.646917,5.39436542
dehydroabietylamine,C20H31N,CC(C)C1=CC2=C(C=C1)[C@]3(CCC[C@@]([C@@H]3CC2)(C)CN)C,2214.127683,-29.397738
"2,6-di-tert-butyl-p-cresol",C15H24O,CC1=CC(=C(C(=C1)C(C)(C)C)O)C(C)(C)C,2005.188638,-81.501046
di-sec-butyl ether,C8H18O,CCC(C)OC(C)CC,1178.108375,-86.19990396
di-tert-butyl ether,C8H18O,CC(C)(C)OC(C)(C)C,1177.630363,-87.19894904
di-propylamine,C6H15N,CCCNCCC,777.2236114,-27.724696
di-t-butyl peroxide,C8H18O2,CC(C)(C)OOC(C)(C)C,1182.984098,-81.501046
diacetone alcohol,C6H12O2,CC(=O)CC(C)(C)O,769.9339284,-130.4494748
diallyl maleate,C10H12O4,C=CCOC(=O)/C=C\C(=O)OCC=C,1150.7182876000002,-123.566102
dibenzofuran,C12H8O,C1=CC=C2C(=C1)C3=CC=CC=C3O2,1363.3858263999998,19.9331004
dibenzopyrrole,C12H9N,C1=CC=C2C(=C1)C3=CC=CC=C3N2,1021.081433,50.0956576
dibenzyl ether,C14H14O,C1=CC=C(C=C1)COCC2=CC=CC=C2,1713.003803,4.6128158
"1,1-dibromo-2,2-dimethylpropane",C5H10Br2,CC(C)(C)C(Br)Br,718.0457258,-23.6974449
"1,3-dibromo-2,2-dimethylpropane",C5H10Br2,CC(C)(CBr)CBr,716.181479,-25.7887474
"1,3-dibromo-2-(bromomethyl)propane",C4H7Br3,C(C(CBr)CBr)Br,543.4518428,-12.47133308
"1,1-dibromo-2-methylbutane",C5H10Br2,CCC(C)C(Br)Br,717.0658011999999,-24.95939658
"1,2-dibromo-2-methylbutane",C5H10Br2,CCC(C)(CBr)Br,717.5677138,-24.52679572
"1,3-dibromo-2-methylbutane",C5H10Br2,CC(CBr)C(C)Br,717.0658011999999,-24.95939658
"1,4-dibromo-2-methylbutane",C5H10Br2,CC(CCBr)CBr,718.21303,-23.6974449
"2,3-dibromo-2-methylbutane",C5H10Br2,CC(C(C)(C)Br)Br,708.6766905999999,-33.20032346
"1,2-dibromo-2-methylpropane",C4H8Br2,CC(C)(CBr)Br,571.2721412,-19.59371188
"1,3-dibromo-2-methylpropane",C4H8Br2,CC(CBr)CBr,571.3199424000001,-18.76436106
"1,1-dibromo-3-methylbutane",C5H10Br2,CC(C)CC(Br)Br,717.0658011999999,-24.95939658
"1,2-dibromo-3-methylbutane",C5H10Br2,CC(C)C(CBr)Br,717.0658011999999,-24.95939658
"1,3-dibromo-3-methylbutane",C5H10Br2,CC(C)(CCBr)Br,717.6633161999999,-24.52679572
"2,2-dibromo-3-methylbutane",C5H10Br2,CC(C)C(C)(Br)Br,716.4921868,-25.7887474
m-dibromobenzene,C6H4Br2,C1=CC(=CC(=C1)Br)Br,691.9940718,29.995253
"1,1-dibromobutane",C4H8Br2,CCCC(Br)Br,571.702352,-18.76436106
"1,2-dibromobutane",C4H8Br2,CCC(CBr)Br,566.085711,-23.7093952
"1,3-dibromobutane",C4H8Br2,CC(CCBr)Br,571.3199424000001,-18.76436106
"1,4-dibromobutane",C4H8Br2,C(CCBr)CBr,571.9652586,-17.50240938
"2,2-dibromobutane",C4H8Br2,CCC(C)(Br)Br,571.3677435999999,-19.59371188
dibromodifluoromethane,CBr2F2,C(F)(F)(Br)Br,-5.736144,-92.3997196
"1,1-dibromoethane",C2H4Br2,CC(Br)Br,278.1790834,-9.7514448
"1,2-dibromoethane",C2H4Br2,C(CBr)Br,278.44199,-9.29972346
"1,1-dibromoheptadecane",C17H34Br2,CCCCCCCCCCCCCCCCC(Br)Br,2465.801001,-82.89445098
"1,1-dibromoheptane",C7H14Br2,CCCCCCC(Br)Br,1010.756374,-33.56361258
"1,1-dibromohexadecane",C16H32Br2,CCCCCCCCCCCCCCCC(Br)Br,2319.816137,-77.96136714
"1,1-dibromohexane",C6H12Br2,CCCCCC(Br)Br,864.3890996,-28.63052874
"1,1-dibromohexatriacontane",C36H72Br2,CCCCCCCCCCCCCCCCCCCCCCCCCCCCCCCCCCCC(Br)Br,5241.305978,-176.6230439
dibromomethane,CH2Br2,C(Br)Br,132.8156342,-3.5372888
"1,1-dibromononadecane",C19H38Br2,CCCCCCCCCCCCCCCCCCC(Br)Br,2762.240143,-92.76061866
"1,1-dibromononane",C9H18Br2,CCCCCCCCC(Br)Br,1303.5148233999998,-43.42978026
"1,1-dibromooctadecane",C18H36Br2,CCCCCCCCCCCCCCCCCC(Br)Br,2611.7858662000003,-87.82753482
"1,1-dibromooctane",C8H16Br2,CCCCCCCC(Br)Br,1157.123648,-38.49669642
"1,1-dibromopentacosane",C25H50Br2,CCCCCCCCCCCCCCCCCCCCCCCCC(Br)Br,3634.110131,-122.3591217
"1,1-dibromopentadecane",C15H30Br2,CCCCCCCCCCCCCCC(Br)Br,2173.831272,-73.0282833
"1,1-dibromopentane",C5H10Br2,CCCCC(Br)Br,718.0457258,-23.6974449
"1,2-dibromopentane",C5H10Br2,CCCC(CBr)Br,717.9501234,-23.6974449
"1,3-dibromopentane",C5H10Br2,CCC(CCBr)Br,717.8067198,-23.6974449
"1,4-dibromopentane",C5H10Br2,CC(CCCBr)Br,717.5916144,-23.6974449
"1,5-dibromopentane",C5H10Br2,C(CCBr)CCBr,718.21303,-22.43549322
"2,2-dibromopentane",C5H10Br2,CCCC(C)(Br)Br,717.6394156,-24.52679572
"2,3-dibromopentane",C5H10Br2,CCC(C(C)Br)Br,716.9223976,-24.95939658
"2,4-dibromopentane",C5H10Br2,CC(CC(C)Br)Br,716.8267952,-24.95939658
"3,3-dibromopentane",C5H10Br2,CCC(CC)(Br)Br,717.7111174,-24.52679572
"1,1-dibromopropane",C3H6Br2,CCC(Br)Br,425.4067794,-13.83127722
"1,2-dibromopropane",C3H6Br2,CC(CBr)Br,420.9373672,-17.3996368
"1,3-dibromopropane",C3H6Br2,C(CBr)CBr,425.789189,-12.56932554
"2,2-dibromopropane",C3H6Br2,CC(C)(Br)Br,425.1438728,-14.66062804
"1,1-dibromotetracosane",C24H48Br2,CCCCCCCCCCCCCCCCCCCCCCCC(Br)Br,3488.053564,-117.4260379
"1,1-dibromotetradecane",C14H28Br2,CCCCCCCCCCCCCC(Br)Br,2027.870308,-68.09519946
"1,2-dibromotetrafluoroethane",C2Br2F4,C(C(F)(F)Br)(F)(F)Br,-47.203685,-220.6001479
"1,1-dibromotriacontane",C30H60Br2,CCCCCCCCCCCCCCCCCCCCCCCCCCCCCC(Br)Br,4364.584168400001,-147.0245409
"1,1-dibromotridecane",C13H26Br2,CCCCCCCCCCCCC(Br)Br,1881.909343,-63.16211562
"1,1-dibromoundecane",C11H22Br2,CCCCCCCCCCC(Br)Br,1588.864087,-53.29594794
dibutylamine,C8H19N,CCCCNCCCC,979.9006994,-37.4283396
dibutyl disulfide,C8H18S2,CCCCSSCCCC,1364.963266,-38.2170594
dibutyl ether,C8H18O,CCCCOCCCC,1184.035724,-79.5650974
dibutyl maleate,C12H20O4,CCCCOC(=O)/C=C\C(=O)OCCCC,1528.1804633999998,-164.436128
dibutyl phthalate,C16H22O4,CCCCOC(=O)C1=CC=CC=C1C(=O)OCCCC,1946.106355,-179.4696054
dibutyl sebacate,C18H34O4,CCCCOC(=O)CCCCCCCCC(=O)OCCCC,2406.1212032000003,-253.34636
dibutyl sulfide,C8H18S,CCCCSCCCC,1293.978484,-39.99048392
dibutyl sulfone,C8H18O2S,CCCCS(=O)(=O)CCCC,1221.607467,-121.8452588
"2,2-dichloro-1,1,1-trifluoroethane",C2HCl2F3,C(C(F)(F)F)(Cl)Cl,33.0784304,-177.7965634
"1,2-dichloro-1,1,2,2-tetrafluoroethane",C2Cl2F4,C(C(F)(F)Cl)(F)(F)Cl,-27.1032804,-215.2010024
"1,2-dichloro-1,1,2-trifluoroethane",C2HCl2F3,C(C(F)(F)Cl)(F)Cl,39.1252822,-171.7138607
"1,2-dichloro-1,1-difluoroethane",C2H2Cl2F2,C(C(F)(F)Cl)Cl,112.9542356,-126.2907704
"1,1-dichloro-1,2,2,2-tetrafluoroethane",C2Cl2F4,C(C(F)(Cl)Cl)(F)(F)F,-33.4130388,-221.5107608
"1,1-dichloro-1,2,2-trifluoroethane",C2HCl2F3,C(C(F)(Cl)Cl)(F)F,39.3403876,-171.7138607
"1,1-dichloro-1,2-difluoroethane",C2H2Cl2F2,C(C(F)(Cl)Cl)F,115.8940094,-123.5804424
"1,2-dichloro-1,2-difluoroethane",C2H2Cl2F2,C(C(F)Cl)(F)Cl,115.3442956,-124.0130432
"3,4-dichloro-1-butene",C4H6Cl2,C=CC(CCl)Cl,525.9805041999999,-15.3919864
"1,1-dichloro-1-fluoroethane",C2H3Cl2F,CC(F)(Cl)Cl,187.4285052,-81.1903382
"1,2-dichloro-1-fluoroethane",C2H3Cl2F,C(C(F)Cl)Cl,191.7545138,-75.87962488
"1,1-dichloro-2,2-difluoroethane",C2H2Cl2F2,C(C(Cl)Cl)(F)F,115.081389,-123.9963128
"1,1-dichloro-2,2-dimethylpropane",C5H10Cl2,CC(C)(C)C(Cl)Cl,704.828694,-45.89871224
"1,3-dichloro-2,2-dimethylpropane",C5H10Cl2,CC(C)(CCl)CCl,705.9998234,-44.63676056
"1,4-dichloro-cis-2-butene",C4H6Cl2,C(/C=C\CCl)Cl,559.1067358,18.6902692
"1,4-dichloro-trans-2-butene",C4H6Cl2,C(/C=C/CCl)Cl,524.4747664,-15.8221972
"1,3-dichloro-2-ethylpropane",C5H10Cl2,CCC(CCl)CCl,706.6929408000001,-43.80740974
"1,1-dichloro-2-fluoroethane",C2H3Cl2F,C(C(Cl)Cl)F,192.6627366,-75.87962488
"1,1-dichloro-2-methylbutane",C5H10Cl2,CCC(C)C(Cl)Cl,705.8803204,-45.06936142
"1,2-dichloro-2-methylbutane",C5H10Cl2,CCC(C)(CCl)Cl,706.1910281999999,-44.63676056
"1,3-dichloro-2-methylbutane",C5H10Cl2,CC(CCl)C(C)Cl,705.4979108,-45.06936142
"1,4-dichloro-2-methylbutane",C5H10Cl2,CC(CCCl)CCl,706.6929408000001,-43.80740974
"2,3-dichloro-2-methylbutane",C5H10Cl2,CC(C(C)(C)Cl)Cl,704.828694,-45.89871224
"1,1-dichloro-2-methylpropane",C4H8Cl2,CC(C)C(Cl)Cl,559.4891454,-40.13627758
"1,2-dichloro-2-methylpropane",C4H8Cl2,CC(C)(CCl)Cl,559.9671574,-39.70367672
"1,3-dichloro-2-methylpropane",C4H8Cl2,CC(CCl)CCl,560.0388591999999,-38.8743259
"1,1-dichloro-3-methylbutane",C5H10Cl2,CC(C)CC(Cl)Cl,705.8325192,-45.06936142
"1,2-dichloro-3-methylbutane",C5H10Cl2,CC(C)C(CCl)Cl,705.545712,-45.06936142
"1,3-dichloro-3-methylbutane",C5H10Cl2,CC(C)(CCCl)Cl,706.023724,-44.63676056
"2,2-dichloro-3-methylbutane",C5H10Cl2,CC(C)C(C)(Cl)Cl,704.828694,-45.89871224
"1,2-dichloro-4-nitrobenzene",C6H3Cl2NO2,C1=CC(=C(C=C1[N+](=O)[O-])Cl)Cl,525.4068898,3.4894876
dichloroacetaldehyde,C2H2Cl2O,C(=O)C(Cl)Cl,189.6990622,-48.040206
dichloroacetic acid,C2H2Cl2O2,C(C(=O)O)(Cl)Cl,129.85195979999995,-104.206616
dichloroacetyl chloride,C2HCl3O,C(C(=O)Cl)(Cl)Cl,141.2286454,-67.12005498
"3,4-dichloroaniline",C6H5Cl2N,C1=CC(=C(C=C1N)Cl)Cl,584.7520796,7.7915956
m-dichlorobenzene,C6H4Cl2,C1=CC(=CC(=C1)Cl)Cl,676.6498866,6.094653
p-dichlorobenzene,C6H4Cl2,C1=CC(=CC=C1Cl)Cl,671.3439534,5.3059332
"2,4-dichlorobenzotrifluoride",C7H3Cl2F3,C1=CC(=C(C=C1Cl)Cl)C(F)(F)F,579.4939476,-155.7004587
"1,1-dichlorobutane",C4H8Cl2,CCCC(Cl)Cl,558.4136184,-40.9656284