Name,Formula,SMILES,Enthalpy_combustion (kcal/mol),Enthalpy_formation (kcal/mol)
"1,1,1,2,3,3-hexafluoropropane",C3H2F6,C(C(F)F)(C(F)(F)F)F,28.9436266,-310.9946072
"1,1,1,3,3,3-hexafluoropropane",C3H2F6,C(C(F)(F)F)C(F)(F)F,29.3738374,-310.5643964
"1,1,2,2,3,3-hexafluoropropane",C3H2F6,C(C(C(F)F)(F)F)(F)F,4.78012,-335.1581138
hexafluoropropylene,C3F6,C(=C(F)F)(C(F)(F)F)F,24.020103,-258.12648
hexamethylbenzene,C12H18,CC1=C(C(=C(C(=C1C)C)C)C)C,1607.530455,-25.26054414
hexamethylcyclotrisiloxane,C6H18O3Si3,C[Si]1(O[Si](O[Si](O1)(C)C)(C)C)C,182.2898762,-423.04062
hexamethyldisilazane,C6H19NSi2,C[Si](C)(C)N[Si](C)(C)C,500.8131724,-113.9102596
hexamethyldisiloxane,C6H18OSi2,C[Si](C)(C)O[Si](C)(C)C,580.2348661999999,-185.8797463
hexamethylenediamine,C6H16N2,C(CCCN)CCN,609.2740951999999,-23.62096298
hexamethyleneimine,C6H13N,C1CCCNCC1,756.7407972,-8.16922508
"2,2,3,3,4,4-hexamethylhexane",C12H26,CCC(C)(C)C(C)(C)C(C)(C)C,1805.714231,-63.934105
"2,2,3,3,4,5-hexamethylhexane",C12H26,CC(C)C(C)C(C)(C)C(C)(C)C,1802.678854,-67.3518908
"2,2,3,3,5,5-hexamethylhexane",C12H26,CC(C)(C)CC(C)(C)C(C)(C)C,1799.3805716000002,-70.745776
"2,2,3,4,4,5-hexamethylhexane",C12H26,CC(C)C(C)(C)C(C)C(C)(C)C,1803.419773,-66.443668
"2,2,3,4,5,5-hexamethylhexane",C12H26,CC(C(C)C(C)(C)C)C(C)(C)C,1799.3327703999998,-70.8891796
"2,3,3,4,4,5-hexamethylhexane",C12H26,CC(C)C(C)(C)C(C)(C)C(C)C,1804.734306,-65.129135
"2,2,3,3,4,4-hexamethylpentane",C11H24,CC(C)(C)C(C)(C)C(C)(C)C,1658.223628,-60.6358222
hexanal,C6H12O,CCCCCC=O,842.9024602,-59.4168916
hexane,C6H14,CCCCCC,921.9895456,-39.8901014
"1,2-hexanediol",C6H14O2,CCCCC(CO)O,853.4665254,-115.3681962
"1,3-hexanediol",C6H14O2,CCCC(CCO)O,839.2695689999999,-115.3681962
"1,4-hexanediol",C6H14O2,CCC(CCCO)O,838.672054,-115.3681962
"1,5-hexanediol",C6H14O2,CC(CCCCO)O,838.8871594,-115.8462082
"1,6-hexanediol",C6H14O2,C(CCCO)CCO,834.7284549999999,-112.1894164
"2,3-hexanediol",C6H14O2,CCCC(C(C)O)O,850.5267516,-118.30797
"2,5-hexanediol",C6H14O2,CC(CCC(C)O)O,849.3317215999999,-119.503
"3,4-hexanediol",C6H14O2,CCC(C(CC)O)O,837.2858192,-117.829958
hexanenitrile,C6H11N,CCCCCC#N,726.5304388000001,-2.2944576
2-hexanethiol,C6H14S,CCCCC(C)S,998.3041614,-32.9589274
hexanoic acid,C6H12O2,CCCCCC(=O)O,776.9368042,-121.654054
1-hexanol,C6H14O,CCCCCCO,882.1472454,-75.7171008
2-hexanol,C6H14O,CCCCC(C)O,878.8967638,-79.708501
3-hexanol,C6H14O,CCCC(CC)O,880.498104,-79.230489
2-hexanone,C6H12O,CCCCC(=O)C,835.6127772,-66.682674
3-hexanone,C6H12O,CCCC(=O)CC,836.2341928000001,-66.3719662
hexatriacontane,C36H74,CCCCCCCCCCCCCCCCCCCCCCCCCCCCCCCCCCCC,5298.022101,-187.9471482
1-hexatriacontene,C36H72,CCCCCCCCCCCCCCCCCCCCCCCCCCCCCCCCCCC=C,5270.536411,-157.9686256
hexatriacontylbenzene,C42H78,CCCCCCCCCCCCCCCCCCCCCCCCCCCCCCCCCCCCC1=CC=CC=C1,6001.679666,-161.0135621
hexatriacontylcyclohexane,C42H84,CCCCCCCCCCCCCCCCCCCCCCCCCCCCCCCCCCCCC1CCCCC1,6127.30122,-204.5628453
hexatriacontylcyclopentane,C41H82,CCCCCCCCCCCCCCCCCCCCCCCCCCCCCCCCCCCCC1CCCC1,5986.741791,-198.1574845
1-hexatriacontyne,C36H70,CCCCCCCCCCCCCCCCCCCCCCCCCCCCCCCCCCC#C,5251.583235599999,-118.1812968
1-hexene,C6H12,CCCCC=C,894.1692472,-10.038252
cis-2-hexene,C6H12,CCC/C=C\C,892.1376961999999,-12.0220018
trans-2-hexene,C6H12,CCC/C=C/C,891.3489764,-12.7390198
cis-3-hexene,C6H12,CC/C=C\CC,892.8308135999999,-11.3049838
trans-3-hexene,C6H12,CC/C=C/CC,891.5879824,-12.5000138
hexyl acetate,C8H16O2,CCCCCCOC(=O)C,1079.064289,-125.7888578
hexylamine,C6H15N,CCCCCCN,775.9807801999999,-31.8594998
hexylbenzene,C12H18,CCCCCCC1=CC=CC=C1,1624.930092,-13.0497276
hexyl butanoate,C10H20O2,CCCCCCOC(=O)CCC,1372.969967,-135.4207996
hexylcyclohexane,C12H24,CCCCCCC1CCCCC1,1750.886254,-60.9704306
hexylcyclopentane,C11H22,CCCCCCC1CCCC1,1610.2790243999998,-50.1195582
1-hexylcyclopentene,C11H20,CCCCCCC1=CCCC1,1577.917612,-24.5698168
hexylene glycol,C6H14O2,CC(CC(C)(C)O)O,826.363245,-127.8108486
hexyl formate,C7H14O2,CCCCCCOC=O,941.6597394,-112.093814
hexyl mercaptan,C6H14S,CCCCCCS,999.8577004,-30.8795752
1-hexylnaphthalene,C16H20,CCCCCCC1=CC=CC2=CC=CC=C21,2072.636131,3.4416864
2-hexylnaphthalene,C16H20,CCCCCCC1=CC2=CC=CC=C2C=C1,2073.424851,3.4416864
hexyl propanoate,C9H18O2,CCCCCCOC(=O)CC,1226.674394,-130.0909658
1-hexyne,C6H10,CCCCC#C,875.5506798,29.5650422
2-hexyne,C6H10,CCCC#CC,870.9856652,25.12670078
3-hexyne,C6H10,CCC#CCC,871.3202736,25.334636
hydracrylonitrile,C3H5NO,C(CO)C#N,356.7642562,-23.4942898
hydrazobenzene,C12H12N2,C1=CC=C(C=C1)NNC2=CC=CC=C2,732.4816881999999,76.242914
hydrogen cyanide,CHN,C#N,145.3395486,31.0946806
p-hydroquinone,C6H6O2,C1=CC(=CC=C1O)O,653.3468015999999,-62.55026026
p-hydroxybenzaldehyde,C7H6O2,C1=CC(=CC=C1C=O)O,760.397589,-50.908278
hydroxycaproic acid,C6H12O3,CCCCC(C(=O)O)O,724.1403788,-163.241098
2-hydroxyethyl acrylate,C5H8O3,C=CC(=O)OCCO,570.6985268000001,-117.829958
8-hydroxyquinoline,C9H7NO,C1=CC2=C(C(=C1)O)N=CC=C2,778.2752378,5.138629
indane,C9H10,C1CC2=CC=CC=C2C1,1140.46493,14.5076642
indene,C9H8,C1C=CC2=CC=CC=C21,1106.884587,39.0535804
indole,C8H7N,C1=CC=C2C(=C1)C=CN2,747.4434638,37.4283396
4-iodo-1-butene,C4H7I,C=CCCI,581.0713872,18.26244846
cis-1-iodo-1-hexene,C6H11I,CCCC/C=C\I,871.893888,6.43404152
trans-1-iodo-1-hexene,C6H11I,CCCC/C=C/I,871.893888,6.43404152
trans-1-iodo-1-octene,C8H15I,CCCCCC/C=C/I,1164.7001386000002,-3.43212616
trans-1-iodo-1-pentadecene,C15H29I,CCCCCCCCCCCCC/C=C/I,2181.001452,-37.96371304
3-iodo-1-pentene,C5H9I,CCC(C=C)I,726.6738424,12.06741294
4-iodo-1-pentene,C5H9I,CC(CC=C)I,726.6738424,12.06741294
5-iodo-1-pentene,C5H9I,C=CCCCI,727.4386615999999,13.32936462
2-iodo-1-propene,C3H5I,CC(=C)I,432.481357,20.85566356
3-iodo-1-propene,C3H5I,C=CCI,434.632411,21.869049
"1-iodo-2,2-dimethylbutane",C6H13I,CCC(C)(C)CI,899.4034786,-22.84419348
"1-iodo-2,2-dimethylpropane",C5H11I,CC(C)(C)CI,752.4864904,-18.74046046
"1-iodo-2,3-dimethylbutane",C6H13I,CC(C)C(C)CI,898.5669575999999,-23.6735443
"2-iodo-2,3-dimethylbutane",C6H13I,CC(C)C(C)(C)I,898.8537648,-23.6735443
1-iodo-2-ethylbutane,C6H13I,CCC(CC)CI,897.3958282,-24.93549598
4-iodo-2-methyl-1-butene,C5H9I,CC(=C)CCI,725.4549118,10.98949588
1-iodo-2-methyl-1-propene,C4H7I,CC(=CI)C,577.1038876,13.96034046
1-iodo-2-methylbutane,C5H11I,CCC(C)CI,752.8210988000001,-17.91110964
2-iodo-2-methylbutane,C5H11I,CCC(C)(C)I,752.6059934,-18.74046046
1-iodo-2-methylpentane,C6H13I,CCCC(C)CI,899.1166714,-22.84419348
2-iodo-2-methylpentane,C6H13I,CCCC(C)(C)I,898.8537648,-23.6735443
3-iodo-2-methylpentane,C6H13I,CCC(C(C)C)I,898.2562498,-24.10614516
1-iodo-2-methylpropane,C4H9I,CC(C)CI,606.597228,-12.9780258
2-iodo-2-methylpropane,C4H9I,CC(C)(C)I,604.326671,-17.208432
"1-iodo-3,3-dimethylbutane",C6H13I,CC(C)(C)CCI,898.0889456,-24.10614516
4-iodo-3-methyl-1-butene,C5H9I,CC(CI)C=C,726.6738424,12.06741294
1-iodo-3-methyl-2-butene,C5H9I,CC(=CCI)C,723.4950626,9.02725662
1-iodo-3-methylbutane,C5H11I,CC(C)CCI,752.749397,-17.91110964
2-iodo-3-methylbutane,C5H11I,CC(C)C(C)I,751.793373,-19.17306132
1-iodo-3-methylpentane,C6H13I,CCC(C)CCI,898.9732678,-22.84419348
1-iodo-4-methylpentane,C6H13I,CC(C)CCCI,898.9971684,-22.84419348
2-iodo-4-methylpentane,C6H13I,CC(C)CC(C)I,898.2323491999999,-24.10614516
iodobenzene,C6H5I,C1=CC=C(C=C1)I,730.4740378,38.838475
1-iodobutane,C4H9I,CCCCI,607.5054508000001,-11.71607412
2-iodobutane,C4H9I,CCC(C)I,606.597228,-12.9780258
1-iododecane,C10H21I,CCCCCCCCCCI,1485.183284,-41.31457716
1-iododocosane,C22H45I,CCCCCCCCCCCCCCCCCCCCCCI,3232.580051,-100.5115832
1-iodododecane,C12H25I,CCCCCCCCCCCCI,1780.2122903999998,-51.18074484
1-iododotriacontane,C32H65I,CCCCCCCCCCCCCCCCCCCCCCCCCCCCCCCCI,4693.360822,-149.8424216
1-iodoeicosane,C20H41I,CCCCCCCCCCCCCCCCCCCCI,2940.490818,-90.64541556
iodoform,CHI3,C(I)(I)I,138.9102872,50.4063654
1-iodoheneicosane,C21H43I,CCCCCCCCCCCCCCCCCCCCCI,3086.523484,-95.5784994
1-iodohentriacontane,C31H63I,CCCCCCCCCCCCCCCCCCCCCCCCCCCCCCCI,4547.256454,-144.9093378
1-iodoheptacosane,C27H55I,CCCCCCCCCCCCCCCCCCCCCCCCCCCI,3963.030188,-125.1770024
1-iodoheptadecane,C17H35I,CCCCCCCCCCCCCCCCCI,2502.488422,-75.84616404
1-iodoheptane,C7H15I,CCCCCCCI,1046.200964,-26.51532564
1-iodoheptatriacontane,C37H75I,CCCCCCCCCCCCCCCCCCCCCCCCCCCCCCCCCCCCCI,5423.978263,-174.5078408
1-iodohexacosane,C26H53I,CCCCCCCCCCCCCCCCCCCCCCCCCCI,3816.806317,-120.2439186
1-iodohexadecane,C16H33I,CCCCCCCCCCCCCCCCI,2366.470108,-70.9130802
1-iodohexane,C6H13I,CCCCCCI,899.9292918,-21.5822418
2-iodohexane,C6H13I,CCCCC(C)I,899.0927708,-22.84419348
3-iodohexane,C6H13I,CCCC(CC)I,899.1166714,-22.84419348
1-iodohexatriacontane,C36H73I,CCCCCCCCCCCCCCCCCCCCCCCCCCCCCCCCCCCCI,5277.849995,-169.574757
1-iodononacosane,C29H59I,CCCCCCCCCCCCCCCCCCCCCCCCCCCCCI,4255.047719,-135.0431701
1-iodononadecane,C19H39I,CCCCCCCCCCCCCCCCCCCI,2794.482053,-85.71233172
1-iodononane,C9H19I,CCCCCCCCCI,1338.81601,-36.38149332
1-iodononatriacontane,C39H79I,CCCCCCCCCCCCCCCCCCCCCCCCCCCCCCCCCCCCCCCI,5716.258701,-184.3740085
1-iodooctacosane,C28H57I,CCCCCCCCCCCCCCCCCCCCCCCCCCCCI,4108.967251,-130.1100863
1-iodooctadecane,C18H37I,CCCCCCCCCCCCCCCCCCI,2648.473287,-80.77924788
1-iodooctane,C8H17I,CCCCCCCCI,1192.496536,-31.44840948
1-iodooctatriacontane,C38H77I,CCCCCCCCCCCCCCCCCCCCCCCCCCCCCCCCCCCCCCI,5570.130432,-179.4409247
1-iodopentacosane,C25H51I,CCCCCCCCCCCCCCCCCCCCCCCCCI,3670.72585,-115.3108348
1-iodopentadecane,C15H31I,CCCCCCCCCCCCCCCI,2219.863827,-65.97999636
1-iodopentane,C5H11I,CCCCCI,753.705421,-16.64915796
2-iodopentane,C5H11I,CCCC(C)I,752.8928006,-17.91110964
3-iodopentane,C5H11I,CCC(CC)I,752.8449994,-17.91110964
1-iodopentatriacontane,C35H71I,CCCCCCCCCCCCCCCCCCCCCCCCCCCCCCCCCCCI,5131.721727,-164.6416732
1-iodopropane,C3H7I,CCCI,462.0224986,-7.2418818
2-iodopropane,C3H7I,CC(C)I,459.5129356,-9.9665502
1-iodotetracontane,C40H81I,CCCCCCCCCCCCCCCCCCCCCCCCCCCCCCCCCCCCCCCCI,5862.41087,-189.3070924
1-iodotetracosane,C24H49I,CCCCCCCCCCCCCCCCCCCCCCCCI,3524.645383,-110.3777509
1-iodotetradecane,C14H29I,CCCCCCCCCCCCCCI,2073.281448,-61.04691252
1-iodotetratriacontane,C34H67I,CCCCCCCCCCCCCCCCCCCCCCCCCCCCCCCCCCI,4928.232018,-159.7085893
1-iodotriacontane,C30H61I,CCCCCCCCCCCCCCCCCCCCCCCCCCCCCCI,4419.770653799999,-139.976254
1-iodotricosane,C23H47I,CCCCCCCCCCCCCCCCCCCCCCCI,3378.612717,-105.4446671
1-iodotridecane,C13H27I,CCCCCCCCCCCCCI,1926.746869,-56.11382868
1-iodotritriacontane,C33H67I,CCCCCCCCCCCCCCCCCCCCCCCCCCCCCCCCCI,4839.46519,-154.7755055
1-iodoundecane,C11H23I,CCCCCCCCCCCI,1631.574459,-46.247661
isobutane,C4H10,CC(C)C,632.887888,-32.26581
isobutanol,C4H10O,CC(C)CO,587.1421396,-67.61957752
isobutene,C4H8,CC(=C)C,603.2750446,-4.0870026
isobutyl acetate,C6H12O2,CC(C)COC(=O)C,784.2264872,-118.2362682
isobutyl acrylate,C7H12O2,CC(C)COC(=O)C=C,901.9369422,-94.168364
isobutylamine,C4H11N,CC(C)CN,587.8591576,-23.5540413
isobutylbenzene,C10H14,CC(C)CC1=CC=CC=C1,1330.904911,-4.86138204
isobutyl butanoate,C8H16O2,CCCC(=O)OCC(C)C,1078.347271,-127.390198
isobutylcyclopentane,C9H18,CC(C)CC1CCCC1,1316.397247,-41.56075334
isobutyl formate,C5H10O2,CC(C)COC=O,646.7980372,-104.2783178
isobutyl isobutyrate,C8H16O2,CC(C)COC(=O)C(C)C,1074.977286,-130.736282
isobutyl isocyanide,C5H9N,CC(C)C[N+]#[C-],633.1029934000001,9.602544062
isobutyl mercaptan,C4H10S,CC(C)CS,705.426209,-23.1596814
1-isobutylnaphthalene,C14H16,CC(C)CC1=CC=CC2=CC=CC=C21,1779.566974,12.2610078
2-isobutylphenol,C10H14O,CC(C)CC1=CC=CC=C1O,1286.880006,-46.79498474
3-isobutylphenol,C10H14O,CC(C)CC1=CC(=CC=C1)O,1282.171588,-46.79498474
4-isobutylphenol,C10H14O,CC(C)CC1=CC=C(C=C1)O,1282.171588,-46.79498474
isobutyl propanoate,C7H14O2,CCC(=O)OCC(C)C,924.714214,-129.660755
isobutyraldehyde,C4H8O,CC(C)C=O,548.4231675999999,-51.5774948
isobutyric acid,C4H8O2,CC(C)C(=O)O,482.6248158,-114.244868
isobutyronitrile,C4H7N,CC(C)C#N,516.133457,5.7600446000000005
isodecanol,C10H22O,CC(C)CCCCCCCO,1465.704295,-97.753454
isopentane,C5H12,CCC(C)C,774.3316388000001,-36.7352222
isopentyl acetate,C7H14O2,CC(C)CCOC(=O)C,931.7170898,-122.1798672
isopentyl formate,C6H12O2,CC(C)CCOC=O,794.1930374,-108.4609228
isopentyl isovalerate,C10H20O2,CC(C)CCOC(=O)CC(C)C,1368.763461,-139.340498
isopentyl propanoate,C8H16O2,CCC(=O)OCCC(C)C,1079.064289,-126.4819752
isophorone,C9H14O,CC1=CC(=O)CC(C1)(C)C,1180.856944,-59.990506
isophthalic acid,C8H6O4,C1=CC(=CC(=C1)C(=O)O)C(=O)O,731.9319744000001,-166.4198778
isophthaloyl chloride,C8H4Cl2O2,C1=CC(=CC(=C1)C(=O)Cl)C(=O)Cl,795.7943776,-72.179812
isoprene,C5H8,CC(=C)C=C,713.2895064,18.1166548
"2-isopropyl-1,3-propanediol",C6H14O2,CC(C)C(CO)CO,842.3049451999999,-112.810832
"2-isopropyl-1,4-butanediol",C7H16O2,CC(C)C(CCO)CO,988.7917226,-117.7821568
2-isopropyl-1-pentene,C8H16,CCCC(=C)C(C)C,1183.438209,-23.44409854
3-isopropyl-2-methylhexane,C10H22,CCCC(C(C)C)C(C)C,1506.335315,-61.10905408
4-isopropyl-4-heptanol,C10H22O,CCCC(CCC)(C(C)C)O,1465.847699,-99.42410594
isopropyl acetate,C5H10O2,CC(C)OC(=O)C,636.3773755999999,-115.1291902
isopropyl alcohol,C3H8O,CC(C)O,438.5999106,-65.1769362
isopropylamine,C3H9N,CC(C)N,474.2357052,-20.0048022
isopropyl butanoate,C7H14O2,CCCC(=O)OC(C)C,929.6377376,-124.641629
isopropylcyclohexane,C9H18,CC(C)C1CCCCC1,1311.186916,-46.60617
isopropylcyclopentane,C8H16,CC(C)C1CCCC1,1157.912368,-48.70464268
isopropylcyclopropane,C6H12,CC(C)C1CC1,899.7619876,-4.5889152
isopropyl formate,C4H8O2,CC(C)OC=O,498.7816214,-101.5297488
4-isopropylheptane,C10H22,CCCC(CCC)C(C)C,1507.219637,-60.01918672
isopropyl isocyanide,C4H7N,CC(C)[N+]#[C-],525.2634862,14.579366
isopropyl mercaptan,C3H8S,CC(C)S,559.3696424,-18.1405554
1-isopropylnaphthalene,C13H14,CC(C)C1=CC=CC2=CC=CC=C21,1633.056296,17.32076482
2-isopropylnaphthalene,C13H14,CC(C)C1=CC2=CC=CC=C2C=C1,1632.81729,17.08175882
isopropyl nitrate,C3H7NO3,CC(C)O[N+](=O)[O-],399.4507278,-45.650146
4-isopropyloctane,C11H24,CCCCC(CCC)C(C)C,1653.013297,-65.5832464
2-isopropylphenol,C9H12O,CC(C)C1=CC=CC=C1O,1140.560533,-41.8619009
3-isopropylphenol,C9H12O,CC(C)C1=CC(=CC=C1)O,1136.2106233999998,-41.8619009
4-isopropylphenol,C9H12O,CC(C)C1=CC=C(C=C1)O,1136.186723,-41.8619009
isopropyl propanoate,C6H12O2,CCC(=O)OC(C)C,783.1270595999999,-119.7898072
2-isopropylthiophene,C7H10S,CC(C)C1=CC=CS1,1019.384491,10.12429416
3-isopropylthiophene,C7H10S,CC(C)C1=CSC=C1,1018.117759,8.862342479999999
isoquinoline,C9H7N,C1=CC=C2C=NC=CC2=C1,808.7485028,49.8088504
itaconic acid,C5H6O4,C=C(CC(=O)O)C(=O)O,469.3838834,-174.235374
ketene,C2H2O,C=C=O,234.4887866,-11.4005862
l-glutamic acid,C5H9NO4,C(CC(=O)O)[C@@H](C(=O)O)N,434.0587966,-196.940944
lactic acid,C3H6O3,CC(C(=O)O)O,293.1886602,-148.422726
lactonitrile,C3H5NO,CC(C#N)O,365.1772674,-15.2724834
levulinic acid,C5H8O3,CC(=O)CCC(=O)O,541.5397948,-145.076642
linoleic acid,C18H32O2,CCCCC/C=C\C/C=C\CCCCCCCC(=O)O,2471.991257,-129.06324
lysine,C6H14N2O2,C(CCN)C[C@@H](C(=O)O)N,521.4154896,-110.181766
maleic acid,C4H4O4,C(=C\C(=O)O)\C(=O)O,330.2584908,-161.5202548
maleic anhydride,C4H2O3,C1=CC(=O)OC1=O,324.570148,-95.1960898
malic acid,C4H6O5,C(C(C(=O)O)O)C(=O)O,284.0825316,-236.61594
malononitrile,C3H2N2,C(C#N)C#N,343.6667274,63.456093
3-mercaptopropionic acid,C3H6O2S,C(CS)C(=O)O,416.8025634,-97.02209564
mesitylene,C9H12,CC1=CC(=CC(=C1)C)C,1179.9965226000002,-3.8001954
mesityl oxide,C6H10O,CC(=CC(=O)C)C,797.8976304,-46.74001336
"meso-2,3-butanediol",C4H10O2,C[C@H]([C@H](C)O)O,538.839027,-114.005862
"meso-2,3-dibromobutane",C4H8Br2,C[C@H]([C@H](C)Br)Br,570.5551231999999,-20.02631274
"meso-2,3-dichlorobutane",C4H8Cl2,CC(C(C)Cl)Cl,559.2501394,-40.13627758
"meso-2,4-pentanediol",C5H12O2,C[C@H](C[C@H](C)O)O,702.5103358,-114.483874
methacrolein,C4H6O,CC(=C)C=O,515.7032462,-26.768672
methacrylic acid,C4H6O2,CC(=C)C(=O)O,455.1630264,-86.4723708
methacrylonitrile,C4H5N,CC(=C)C#N,492.3284594,23.42975818
methane,CH4,C,191.8262156,-17.805947
methanesulfonic acid,CH4O3S,CS(=O)(=O)O,141.2286454,-139.340498
methoxyacetic acid,C3H6O3,COCC(=O)O,308.31774,-134.560378
2-methoxyethanol,C3H8O2,COCCO,400.1438452,-103.728604
2-(2-methoxyethoxy)ethanol,C5H12O3,COCCOCCO,679.2311514,-126.67318
p-methoxyphenol,C7H8O2,COC1=CC=C(C=C1)O,812.739903,-59.512494
3-methoxypropionitrile,C4H7NO,COCCC#N,489.1735802,-18.881474
"3-methyl-1,2-butadiene",C5H8,CC(=C=C)C,725.8851225999999,30.8556746
"2-methyl-1,2-butanediol",C5H12O2,CCC(C)(CO)O,689.7474154,-114.72288
"3-methyl-1,2-butanediol",C5H12O2,CC(C)C(CO)O,691.205352,-112.810832
"3-methyl-1,2-pentadiene",C6H10,CCC(=C=C)C,872.9455144,26.5894175
"4-methyl-1,2-pentadiene",C6H10,CC(C)C=C=C,861.9512384,15.59036138
"2-methyl-1,2-pentanediol",C6H14O2,CCCC(C)(CO)O,837.118515,-118.3557712
"2-methyl-1,2-propanediol",C4H10O2,CC(C)(CO)O,542.1134092,-110.898784
"2-methyl-1,3-butanediol",C5H12O2,CC(CO)C(C)O,691.7550658,-112.571826
"3-methyl-1,3-butanediol",C5H12O2,CC(C)(CCO)O,689.4606081999999,-114.72288
"3-methyl-1,trans-3-pentadiene",C6H10,C/C=C(/C)\C=C,861.9273378,15.70030414
"4-methyl-1,3-pentadiene",C6H10,CC(=CC=C)C,861.9512384,15.70030414
"2-methyl-1,3-pentanediol",C6H14O2,CCC(C(C)CO)O,839.4368731999999,-115.7745064
"1-methyl-1,3-propanediol",C4H10O2,CC(CCO)O,547.5866466,-104.1181838
"2-methyl-1,4-butanediol",C5H12O2,CC(CCO)CO,695.3162552,-108.986736
"2-methyl-1,4-pentadiene",C6H10,CC(=C)CC=C,864.4369008,17.6625434
"3-methyl-1,4-pentadiene",C6H10,CC(C=C)C=C,865.4168254,18.74046046
"4-methyl-1,5-hexanediol",C7H16O2,CC(CCCO)C(C)O,985.3500362,-121.2238432
"5-methyl-1,5-hexanediol",C7H16O2,CC(C)(CCCCO)O,987.3815872,-119.7467861
"2-methyl-1,5-pentanediol",C6H14O2,CC(CCCO)CO,841.8030325999999,-113.3127446
"3-methyl-1,5-pentanediol",C6H14O2,CC(CCO)CCO,840.9426109999999,-113.3127446
"3-methyl-1,6-hexanediol",C7H16O2,CC(CCCO)CCO,988.8156232,-118.2840694
2-methyl-1-butanethiol,C5H12S,CCC(C)CS,852.4387995999999,-27.4139882
3-methyl-1-butanethiol,C5H12S,CC(C)CCS,852.7017062,-27.3900876
2-methyl-1-butanol,C5H12O,CCC(C)CO,734.106929,-72.19893248
3-methyl-1-butanol,C5H12O,CC(C)CCO,734.704444,-71.79979246
2-methyl-1-butene,C5H10,CCC(=C)C,744.742696,-8.3413094
3-methyl-1-butene,C5H10,CC(C)C=C,752.6059934,-6.5965656
2-methyl-1-butene-3-yne,C5H6,CC1=CC(=C(C=C1)N=C=S)C,699.7617668,62.14156
3-methyl-1-butyne,C5H8,CC(C)C#C,727.7971706,32.6004184
2-methyl-1-decene,C11H22,CCCCCCCCC(=C)C,1623.472156,-36.98139838
2-methyl-1-dodecene,C13H26,CCCCCCCCCCC(=C)C,1916.493512,-46.84756606
1-methyl-1-ethylcyclohexane,C9H18,CCC1(CCCCC1)C,1310.111389,-47.8012
1-methyl-1-ethylcyclopentane,C8H16,CCC1(CCCC1)C,1169.767066,-37.0220294
2-methyl-1-heptadecene,C18H36,CCCCCCCCCCCCCCCC(=C)C,2649.094703,-71.51298526
2-methyl-1-heptanol,C8H18O,CCCCCC(C)CO,1174.284279,-87.46663576
3-methyl-1-heptanol,C8H18O,CCCCC(C)CCO,1174.045273,-87.46663576
4-methyl-1-heptanol,C8H18O,CCCC(C)CCCO,1174.093074,-87.46663576
5-methyl-1-heptanol,C8H18O,CCC(C)CCCCO,1174.0213726000002,-87.46663576
6-methyl-1-heptanol,C8H18O,CC(C)CCCCCO,1173.997472,-87.46663576
2-methyl-1-heptene,C8H16,CCCCCC(=C)C,1184.489835,-22.18214686
3-methyl-1-heptene,C8H16,CCCCC(C)C=C,1185.278555,-21.5822418
4-methyl-1-heptene,C8H16,CCCC(C)CC=C,1185.565362,-21.2476334
5-methyl-1-heptene,C8H16,CCC(C)CCC=C,1185.971673,-20.8413232
6-methyl-1-heptene,C8H16,CC(C)CCCC=C,1185.230754,-21.5822418
2-methyl-1-hexadecene,C17H34,CCCCCCCCCCCCCCC(=C)C,2502.536224,-66.57990142
2-methyl-1-hexanol,C7H16O,CCCCC(C)CO,1027.773601,-82.53355192
3-methyl-1-hexanol,C7H16O,CCCC(C)CCO,1027.534595,-82.53355192
4-methyl-1-hexanol,C7H16O,CCC(C)CCCO,1027.510695,-82.53355192
5-methyl-1-hexanol,C7H16O,CC(C)CCCCO,1027.438993,-81.740052
2-methyl-1-hexene,C7H14,CCCCC(=C)C,1036.831929,-18.6185674
3-methyl-1-hexene,C7H14,CCCC(C)C=C,1038.935181,-16.610917
4-methyl-1-hexene,C7H14,CCC(C)CC=C,1039.245889,-16.3241098
5-methyl-1-hexene,C7H14,CC(C)CCC=C,1038.935181,-16.6826188
3-methyl-1-hexyne,C7H12,CCCC(C)C#C,1020.914129,23.064079
4-methyl-1-hexyne,C7H12,CCC(C)CC#C,1020.17321,22.4426634
5-methyl-1-hexyne,C7H12,CC(C)CCC#C,1020.101509,22.3948622
2-methyl-1-nonadecene,C20H40,CCCCCCCCCCCCCCCCCC(=C)C,2942.283363,-81.37915294
2-methyl-1-nonanol,C10H22O,CCCCCCCC(C)CO,1466.803723,-97.33280344
4-methyl-1-nonanol,C10H22O,CCCCCC(C)CCCO,1467.018828,-97.33280344
5-methyl-1-nonanol,C10H22O,CCCCC(C)CCCCO,1467.018828,-97.33280344
7-methyl-1-nonanol,C10H22O,CCC(C)CCCCCCO,1467.018828,-97.33280344