Name,Formula,SMILES,Enthalpy_combustion (kcal/mol),Enthalpy_formation (kcal/mol)
"1,1,1-trichlorononane",C9H17Cl3,CCCCCCCCC(Cl)(Cl)Cl,1258.031982,-68.5230202
"1,1,1-trichlorooctadecane",C18H35Cl3,CCCCCCCCCCCCCCCCCC(Cl)(Cl)Cl,2565.872814,-112.8825338
"1,1,1-trichlorooctane",C8H15Cl3,CCCCCCCC(Cl)(Cl)Cl,1111.640807,-63.5994966
"1,1,1-trichloropentane",C5H9Cl3,CCCCC(Cl)(Cl)Cl,672.5628839999999,-48.8050252
"1,1,1-trichloropropane",C3H5Cl3,CCC(Cl)(Cl)Cl,379.9478382,-38.9340774
"1,1,2-trichloropropane",C3H5Cl3,CC(C(Cl)Cl)Cl,379.2786214,-38.96514818
"1,1,3-trichloropropane",C3H5Cl3,C(CCl)C(Cl)Cl,380.1629436,-37.7031965
"1,2,2-trichloropropane",C3H5Cl3,CC(CCl)(Cl)Cl,379.9956394,-38.53254732
"1,2,3-trichloropropane",C3H5Cl3,C(C(CCl)Cl)Cl,373.0644654,-44.40014462
"1,1,1-trichlorotetradecane",C14H27Cl3,CCCCCCCCCCCCCC(Cl)(Cl)Cl,1981.981156,-93.1645388
"1,1,1-trichlorotridecane",C13H25Cl3,CCCCCCCCCCCCC(Cl)(Cl)Cl,1836.044092,-88.2410152
"1,1,1-trichloroundecane",C11H21Cl3,CCCCCCCCCCC(Cl)(Cl)Cl,1543.883158,-78.3700674
tricosane,C23H48,CCCCCCCCCCCCCCCCCCCCCCC,3399.358437,-123.8170583
1-tricosene,C23H46,CCCCCCCCCCCCCCCCCCCCCC=C,3371.56204,-93.83853572
tricosylbenzene,C29H52,CCCCCCCCCCCCCCCCCCCCCCCC1=CC=CC=C1,4101.988276,-96.88347216
tricosylcyclohexane,C29H58,CCCCCCCCCCCCCCCCCCCCCCCC1CCCCC1,4229.282872,-140.4327554
tricosylcyclopentane,C28H56,CCCCCCCCCCCCCCCCCCCCCCCC1CCCC1,4087.193805,-134.0273946
1-tricosyne,C23H44,CCCCCCCCCCCCCCCCCCCCCC#C,3352.561063,-54.0512069
1-tridecanal,C13H26O,CCCCCCCCCCCCC=O,1867.329977,-94.1922646
tridecane,C13H28,CCCCCCCCCCCCC,1946.249759,-74.51490062
"1,2-tridecanediol",C13H28O2,CCCCCCCCCCCC(CO)O,1883.199976,-148.5159383
"1,4-tridecanediol",C13H28O2,CCCCCCCCCC(CCCO)O,1883.199976,-148.5159383
"1,13-tridecanediol",C13H28O2,C(CCCCCCO)CCCCCCO,1884.466708,-147.2539867
tridecanenitrile,C13H25N,CCCCCCCCCCCCC#N,1437.860096,-35.07891062
1-tridecanethiol,C13H28S,CCCCCCCCCCCCCS,2024.404721,-65.4398428
tridecanoic acid,C13H26O2,CCCCCCCCCCCCC(=O)O,1795.652078,-157.74396
1-tridecanol,C13H28O,CCCCCCCCCCCCCO,1898.926571,-109.9666606
2-tridecanol,C13H28O,CCCCCCCCCCCC(C)O,1908.152202,-112.132055
2-tridecanone,C13H26O,CCCCCCCCCCCC(=O)C,1851.412178,-101.5536494
1-tridecene,C13H26,CCCCCCCCCCCC=C,1918.309957,-44.5985196
tridecyl acetate,C15H30O2,CCCCCCCCCCCCCOC(=O)C,2104.304426,-160.4686284
tridecylamine,C13H29N,CCCCCCCCCCCCCN,1507.3869413999998,-142.20857
tridecylamine,C13H29N,CCCCCCCCCCCCCN,1507.3869413999998,-66.3480656
tridecylamine,C30H63N,CCCCCCCCCCCCCN,3913.818852,-142.20857
tridecylamine,C30H63N,CCCCCCCCCCCCCN,3913.818852,-66.3480656
tridecylbenzene,C19H32,CCCCCCCCCCCCCC1=CC=CC=C1,2650.1463292000003,-47.7294982
tridecyl butanoate,C17H34O2,CCCCCCCCCCCCCOC(=O)CCC,2386.737817,-170.1005702
tridecylcyclohexane,C19H38,CCCCCCCCCCCCCC1CCCCC1,2776.245895,-95.5545988
tridecylcyclopentane,C18H36,CCCCCCCCCCCCCC1CCCC1,2635.471361,-84.6798258
1-tridecylcyclopentene,C18H34,CCCCCCCCCCCCCC1=CCCC1,2603.58796,-59.3212892
tridecyl formate,C14H28O2,CCCCCCCCCCCCCOC=O,1957.626444,-146.7735846
tridecyl propanoate,C16H32O2,CCCCCCCCCCCCCOC(=O)CC,2251.317017,-164.7707364
1-tridecyne,C13H24,CCCCCCCCCCCC#C,1899.954296,-5.019126
2-tridecyne,C13H24,CCCCCCCCCCC#CC,1888.051798,-9.4048861
3-tridecyne,C13H24,CCCCCCCCCC#CCC,1888.195201,-9.4048861
tridodecylamine,C36H75N,CCCCCCCCCCCCN(CCCCCCCCCCCC)CCCCCCCCCCCC,4780.048298,-171.807073
triethanolamine,C6H15NO3,C(CO)N(CCO)CCO,660.6603852,-134.3404925
triethylamine,C6H15N,CCN(CC)CC,782.7207494,-22.1558562
"1,2,3-triethylbenzene",C12H18,CCC1=C(C(=CC=C1)CC)CC,1621.775213,-16.25001794
"1,2,4-triethylbenzene",C12H18,CCC1=CC(=C(C=C1)CC)CC,1621.034294,-16.99093654
"1,3,5-triethylbenzene",C12H18,CCC1=CC(=CC(=C1)CC)CC,1620.197773,-17.86091838
triethylenediamine,C6H12N2,C1CN2CCN1CC2,600.2874696,12.5956162
triethylene glycol,C6H14O4,C(COCCOCCO)O,780.1872858,-173.3008605
triethylene glycol dimethyl ether,C8H18O4,COCCOCCOCCOC,1098.782284,-161.568056
triethylene tetramine,C6H18N4,C(CNCCNCCN)N,324.4267444,0.8006701
"3,3,4-triethylhexane",C12H26,CCC(CC)C(CC)(CC)CC,1806.07274,-63.7907014
"1,1,1-trifluoro-2-methylpropane",C4H7F3,CC(C)C(F)(F)F,404.4220526,-174.0561195
"1,1,2-trifluoro-2-methylpropane",C4H7F3,CC(C)(C(F)F)F,404.4220526,-174.0561195
"1,1,3-trifluoro-2-methylpropane",C4H7F3,CC(CF)C(F)F,405.234673,-173.2267687
trifluoroacetic acid,C2HF3O2,C(=O)(C(F)(F)F)O,-34.7514724,-244.1924302
"1,1,1-trifluorobutane",C4H7F3,CCCC(F)(F)F,405.6648838,-172.7941678
"1,1,2-trifluorobutane",C4H7F3,CCC(C(F)F)F,405.234673,-173.2267687
"1,1,3-trifluorobutane",C4H7F3,CC(CC(F)F)F,405.234673,-173.2267687
"1,1,4-trifluorobutane",C4H7F3,C(CC(F)F)CF,406.5014048,-171.964817
"1,2,2-trifluorobutane",C4H7F3,CCC(CF)(F)F,405.6648838,-172.7941678
"1,2,3-trifluorobutane",C4H7F3,CC(C(CF)F)F,405.234673,-173.2267687
"1,2,4-trifluorobutane",C4H7F3,C(CF)C(CF)F,406.5014048,-171.964817
"1,3,3-trifluorobutane",C4H7F3,CC(CCF)(F)F,405.6648838,-172.7941678
"1,1,1-trifluorodecane",C10H19F3,CCCCCCCCCC(F)(F)F,1272.109435,-202.3926709
"1,1,1-trifluorododecane",C12H23F3,CCCCCCCCCCCC(F)(F)F,1564.031363,-212.2588385
"1,1,1-trifluoroethane",C2H3F3,CC(F)(F)F,96.5823246,-178.2028736
"1,1,2-trifluoroethane",C2H3F3,C(C(F)F)F,114.7945818,-159.9906164
trifluoroethene,C2HF3,C(=C(F)F)F,99.6894026,-117.3041448
"1,1,1-trifluoroheptadecane",C17H33F3,CCCCCCCCCCCCCCCCC(F)(F)F,2293.64498,-236.9242577
"1,1,1-trifluoroheptane",C7H13F3,CCCCCCC(F)(F)F,838.6003522,-187.5934193
"1,1,1-trifluorohexadecane",C16H31F3,CCCCCCCCCCCCCCCC(F)(F)F,2147.707916,-231.9911739
"1,1,1-trifluorohexane",C6H11F3,CCCCCC(F)(F)F,692.280879,-182.6603355
"1,1,1-trifluorononadecane",C19H37F3,CCCCCCCCCCCCCCCCCCC(F)(F)F,2585.63861,-246.7975956
"1,1,1-trifluorononane",C9H17F3,CCCCCCCCC(F)(F)F,1131.3110003999998,-197.459587
"1,1,1-trifluorooctadecane",C18H35F3,CCCCCCCCCCCCCCCCCC(F)(F)F,2439.725447,-241.8501714
"1,1,1-trifluorooctane",C8H15F3,CCCCCCCC(F)(F)F,984.9676266,-192.5265032
"1,1,1-trifluoropentadecane",C15H29F3,CCCCCCCCCCCCCCC(F)(F)F,2001.770852,-227.0580901
"1,1,1-trifluoropentane",C5H9F3,CCCCC(F)(F)F,545.9853064,-177.7272517
"1,1,1-trifluoropropane",C3H5F3,CCC(F)(F)F,258.7717962,-167.861084
"1,1,2-trifluoropropane",C3H5F3,CC(C(F)F)F,258.34158540000004,-168.2936848
"1,1,3-trifluoropropane",C3H5F3,C(CF)C(F)F,259.5844166,-167.0317332
"1,2,2-trifluoropropane",C3H5F3,CC(CF)(F)F,258.7717962,-167.861084
"1,2,3-trifluoropropane",C3H5F3,C(C(CF)F)F,259.5844166,-167.0317332
"1,1,1-trifluorotetradecane",C14H27F3,CCCCCCCCCCCCCC(F)(F)F,1855.809888,-222.1250062
"1,1,1-trifluorotridecane",C13H25F3,CCCCCCCCCCCCC(F)(F)F,1709.920626,-217.1919224
"1,1,1-trifluoroundecane",C11H21F3,CCCCCCCCCCC(F)(F)F,1417.926996,-207.3257547
triheptylamine,C21H45N,CCCCCCCN(CCCCCCC)CCCCCCC,2606.408231,-97.81081544
trihexadecylamine,C48H99N,CCCCCCCCCCCCCCCCN(CCCCCCCCCCCCCCCC)CCCCCCCCCCCCCCCC,6501.489013,-231.0040791
trihexylamine,C18H39N,CCCCCCN(CCCCCC)CCCCCC,2190.705095,-83.01156392
"1,1,1-triiodo-2-methylpropane",C4H7I3,CC(C)C(I)(I)I,566.0618104,21.67545414
"1,1,2-triiodo-2-methylpropane",C4H7I3,CC(C)(C(I)I)I,566.0618104,21.67545414
"1,1,1-triiodobutane",C4H7I3,CCCC(I)(I)I,564.3648678000001,22.93740582
"1,1,2-triiodobutane",C4H7I3,CCC(C(I)I)I,566.6115242,22.50480496
"1,1,4-triiodobutane",C4H7I3,C(CC(I)I)CI,567.758753,23.76675664
"1,2,3-triiodobutane",C4H7I3,CC(C(CI)I)I,566.6115242,22.50480496
"1,2,4-triiodobutane",C4H7I3,C(CI)C(CI)I,567.758753,23.76675664
"1,1,1-triiododecane",C10H19I3,CCCCCCCCCC(I)(I)I,1438.5532133999998,-6.66109722
"1,1,1-triiodododecane",C12H23I3,CCCCCCCCCCCC(I)(I)I,1730.140533,-16.5272649
"1,1,1-triiodoethane",C2H3I3,CC(I)(I)I,272.8731502,32.8035735
"1,1,2-triiodoethane",C2H3I3,C(C(I)I)I,275.0720054,33.63292432
"1,1,1-triiodoheptane",C7H13I3,CCCCCCC(I)(I)I,1001.506842,8.1381543
"1,1,1-triiodohexadecane",C16H31I3,CCCCCCCCCCCCCCCC(I)(I)I,2313.100068,-36.25960026
"1,1,1-triiodohexane",C6H11I3,CCCCCC(I)(I)I,855.8087842,13.071238139999998
"1,1,1-triiodononane",C9H17I3,CCCCCCCCC(I)(I)I,1292.879056,-1.72801338
"1,1,1-triiodooctadecane",C18H35I3,CCCCCCCCCCCCCCCCCC(I)(I)I,2604.567885,-46.12576794
"1,1,1-triiodooctane",C8H15I3,CCCCCCCC(I)(I)I,1147.180999,3.20507046
"1,1,1-triiodopentadecane",C15H29I3,CCCCCCCCCCCCCCC(I)(I)I,2167.354209,-31.32651642
"1,1,1-triiodopentane",C5H9I3,CCCCC(I)(I)I,710.086826,18.00432198
"1,1,2-triiodopropane",C3H5I3,CC(C(I)I)I,420.2681504,27.4378888
"1,1,3-triiodopropane",C3H5I3,C(CI)C(I)I,421.4153792,28.69984048
"1,2,2-triiodopropane",C3H5I3,CC(CI)(I)I,418.619009,27.87048966
"1,2,3-triiodopropane",C3H5I3,C(C(CI)I)I,421.4153792,28.69984048
"1,1,1-triiodotetradecane",C14H27I3,CCCCCCCCCCCCCC(I)(I)I,2021.632251,-26.39343258
"1,1,1-triiodotridecane",C13H25I3,CCCCCCCCCCCCC(I)(I)I,1875.886392,-21.46034874
"1,1,1-triiodoundecane",C11H21I3,CCCCCCCCCCC(I)(I)I,1584.22737,-11.59418106
trimellitic anhydride,C9H4O5,C1=CC2=C(C=C1C(=O)O)C(=O)OC2=O,749.4750148,-185.946668
"2,2,3-trimethyl-1-butanol",C7H16O,CC(C)C(C)(C)CO,1026.14836,-84.62485442
"2,3,3-trimethyl-1-butanol",C7H16O,CC(CO)C(C)(C)C,1026.076659,-84.62485442
"2,3,3-trimethyl-1-butene",C7H14,CC(=C)C(C)(C)C,1035.111085,-20.7696214
"3,5,5-trimethyl-1-hexanol",C9H20O,CC(CCO)CC(C)(C)C,1318.954611,-94.4910221
"4,5,5-trimethyl-1-hexanol",C9H20O,CC(CCCO)C(C)(C)C,1318.715605,-94.4910221
"2,2,3-trimethyl-1-pentanol",C8H18O,CCC(C)C(C)(C)CO,1172.563436,-89.55793826
"2,2,4-trimethyl-1-pentanol",C8H18O,CC(C)CC(C)(C)CO,1172.70684,-89.55793826
"2,3,4-trimethyl-1-pentanol",C8H18O,CC(C)C(C)C(C)CO,1171.798617,-89.99053912
"2,4,4-trimethyl-1-pentanol",C8H18O,CC(CC(C)(C)C)CO,1172.635138,-89.55793826
"3,4,4-trimethyl-1-pentanol",C8H18O,CC(CCO)C(C)(C)C,1172.635138,-89.55793826
"2,3,3-trimethyl-1-pentene",C8H16,CCC(C)(C)C(=C)C,1183.031899,-24.0918048
"2,3,4-trimethyl-1-pentene",C8H16,CC(C)C(C)C(=C)C,1181.812968,-25.2629342
"2,4,4-trimethyl-1-pentene",C8H16,CC(=C)CC(C)(C)C,1180.713541,-26.6013678
"3,3,4-trimethyl-1-pentene",C8H16,CC(C)C(C)(C)C=C,1184.800543,-22.3948622
"3,4,4-trimethyl-1-pentene",C8H16,CC(C=C)C(C)(C)C,1182.960197,-24.259109
"2,3,3-trimethyl-2-butanol",C7H16O,CC(C)(C)C(C)(C)O,1026.12446,-85.45420524
"2,5,6-trimethyl-2-heptanol",C10H22O,CC(C)C(C)CCC(C)(C)O,1464.628768,-100.6860576
"4,6,6-trimethyl-2-heptanol",C10H22O,CC(CC(C)O)CC(C)(C)C,1464.628768,-100.6860576
"2,4,4-trimethyl-2-hexanol",C9H20O,CCC(C)(C)CC(C)(C)O,1318.3331953999998,-95.32037292
"2,3,3-trimethyl-2-pentanol",C8H18O,CCC(C)(C)C(C)(C)O,1172.276629,-90.38728908
"2,3,4-trimethyl-2-pentanol",C8H18O,CC(C)C(C)C(C)(C)O,1171.798617,-90.81988994
"2,4,4-trimethyl-2-pentanol",C8H18O,CC(C)(C)CC(C)(C)O,1172.611237,-90.38728908
"3,3,4-trimethyl-2-pentanol",C8H18O,CC(C)C(C)(C)C(C)O,1171.631313,-90.81988994
"3,4,4-trimethyl-2-pentanol",C8H18O,CC(C(C)O)C(C)(C)C,1170.125575,-90.81988994
"2,3,4-trimethyl-2-pentene",C8H16,CC(C)C(=C(C)C)C,1180.809143,-26.0755546
"2,4,4-trimethyl-2-pentene",C8H16,CC(=CC(C)(C)C)C,1181.454459,-25.6453438
"1,2,4-trimethyl-3-ethylbenzene",C11H16,CCC1=C(C=CC(=C1C)C)C,1474.021704,-12.4761132
"2,2,4-trimethyl-3-ethylhexane",C11H24,CCC(C)C(CC)C(C)(C)C,1657.936821,-60.9943312
"2,2,5-trimethyl-3-ethylhexane",C11H24,CCC(CC(C)C)C(C)(C)C,1652.415782,-66.6109722
"2,2,3-trimethyl-3-heptanol",C10H22O,CCCCC(C)(C(C)(C)C)O,1465.345786,-100.2534568
"3,5,5-trimethyl-3-heptanol",C10H22O,CCC(C)(C)CC(C)(CC)O,1465.10678,-100.2534568
"2,2,3-trimethyl-3-hexanol",C9H20O,CCCC(C)(C(C)(C)C)O,1318.8112073999998,-95.32037292
"2,2,4-trimethyl-3-hexanol",C9H20O,CCC(C)C(C(C)(C)C)O,1318.380997,-95.75297378
"2,2,5-trimethyl-3-hexanol",C9H20O,CC(C)CC(C(C)(C)C)O,1318.596102,-95.75297378
"2,3,4-trimethyl-3-hexanol",C9H20O,CCC(C)C(C)(C(C)C)O,1318.452698,-95.75297378
"2,4,4-trimethyl-3-hexanol",C9H20O,CCC(C)(C)C(C(C)C)O,1318.309295,-95.75297378
"3,4,4-trimethyl-3-hexanol",C9H20O,CCC(C)(C)C(C)(CC)O,1318.978512,-95.32037292
"2,2,3-trimethyl-3-pentanol",C8H18O,CCC(C)(C(C)(C)C)O,1172.4678336000002,-90.38728908
"2,2,4-trimethyl-3-pentanol",C8H18O,CC(C)C(C(C)(C)C)O,1171.965921,-90.81988994
"2,3,4-trimethyl-3-pentanol",C8H18O,CC(C)C(C)(C(C)C)O,1171.822517,-90.81988994
"1,2,3-trimethyl-4-ethylbenzene",C11H16,CCC1=C(C(=C(C=C1)C)C)C,1473.758797,-12.6434174
"2,2,5-trimethyl-4-ethylhexane",C11H24,CCC(CC(C)(C)C)C(C)C,1651.029547,-68.0928094
"2,3,3-trimethyl-4-ethylhexane",C11H24,CCC(CC)C(C)(C)C(C)C,1656.359381,-62.4044666
"2,3,4-trimethyl-4-ethylhexane",C11H24,CCC(C)(CC)C(C)C(C)C,1655.4033571999998,-63.4082918
"2,2,5-trimethyl-4-heptanol",C10H22O,CCC(C)C(CC(C)(C)C)O,1464.891675,-100.6860576
"2,4,6-trimethyl-4-heptanol",C10H22O,CC(C)CC(C)(CC(C)C)O,1464.891675,-100.6860576
trimethylamine,C3H9N,CN(C)C,495.0770284,-5.6644422
"1,2,3-trimethylbenzene",C9H12,CC1=C(C(=CC=C1)C)C,1181.406658,-2.270557
"1,2,4-trimethylbenzene",C9H12,CC1=CC(=C(C=C1)C)C,1180.546236,-3.2982828
"2,2,3-trimethylbutane",C7H16,CC(C)C(C)(C)C,1064.795631,-48.95081886
"1,1,2-trimethylcyclohexane",C9H18,CC1CCCCC1(C)C,1315.178316,-42.99000922
"1,1,3-trimethylcyclohexane",C9H18,CC1CCCC(C1)(C)C,1315.34562,-42.99000922
"1,1,4-trimethylcyclohexane",C9H18,CC1CCC(CC1)(C)C,1315.393422,-42.99000922
"1,cis-2,cis-3-trimethylcyclohexane",C9H18,CC1CCCC(C1C)C,1306.526299,-51.4938427
"1,cis-2,trans-3-trimethylcyclohexane",C9H18,C[C@@H]1CCC[C@H](C1C)C,1306.5741,-51.4938427
"1,trans-2,cis-3-trimethylcyclohexane",C9H18,C[C@@H]1CCC[C@@H](C1C)C,1306.717504,-51.4938427
"1,cis-2,trans-4-trimethylcyclohexane",C9H18,C[C@@H]1CC[C@H]([C@H](C1)C)C,1306.6219013999998,-51.4938427
"1,trans-2,cis-4-trimethylcyclohexane",C9H18,C[C@@H]1CC[C@H]([C@@H](C1)C)C,1306.693603,-51.4938427
"1,cis-3,cis-5-trimethylcyclohexane",C9H18,CC1CC(CC(C1)C)C,1306.884808,-51.4340912
"1,cis-3,trans-5-trimethylcyclohexane",C9H18,CC1CC(CC(C1)C)C,1308.916359,-49.354739
"1,1,2-trimethylcyclopentane",C8H16,CC1CCCC1(C)C,1170.3884813999998,-36.58464842
"1,1,3-trimethylcyclopentane",C8H16,CC1CCC(C1)(C)C,1170.579686,-36.58464842
"1,cis-2,cis-3-trimethylcyclopentane",C8H16,CC1CCC(C1C)C,1161.712564,-45.0884819
"1,trans-2,cis-3-trimethylcyclopentane",C8H16,C[C@H]1CC[C@@H](C1C)C,1161.97547,-45.0884819
"1,cis-2,trans-4-trimethylcyclopentane",C8H16,C[C@@H]1CC(C[C@@H]1C)C,1161.832067,-45.0884819
"1,1,2-trimethylcyclopropane",C6H12,CC1CC1(C)C,889.3174254,-15.2246822
"2,2,3-trimethylheptane",C10H22,CCCCC(C)C(C)(C)C,1504.757875,-62.57894098
"2,2,4-trimethylheptane",C10H22,CCCC(C)CC(C)(C)C,1504.447168,-63.05934304
"2,2,5-trimethylheptane",C10H22,CCC(C)CCC(C)(C)C,1502.4873183999998,-64.9498805
"2,2,6-trimethylheptane",C10H22,CC(C)CCCC(C)(C)C,1501.7703,-65.64060784
"2,3,3-trimethylheptane",C10H22,CCCCC(C)(C)C(C)C,1505.307589,-62.0101067
"2,3,4-trimethylheptane",C10H22,CCCC(C)C(C)C(C)C,1506.168011,-61.10905408
"2,3,5-trimethylheptane",C10H22,CCC(C)CC(C)C(C)C,1505.044683,-62.27062324
"2,3,6-trimethylheptane",C10H22,CC(C)CCC(C)C(C)C,1504.3276646000002,-62.95896052
"2,4,4-trimethylheptane",C10H22,CCCC(C)(C)CC(C)C,1505.020782,-62.49050876
"2,4,5-trimethylheptane",C10H22,CCC(C)C(C)CC(C)C,1505.068583,-62.27062324
"2,4,6-trimethylheptane",C10H22,CC(C)CC(C)CC(C)C,1506.861128,-60.52109932
"2,5,5-trimethylheptane",C10H22,CCC(C)(C)CCC(C)C,1503.037032,-64.38104622
"3,3,4-trimethylheptane",C10H22,CCCC(C)C(C)(C)CC,1505.976806,-61.31937936
"3,3,5-trimethylheptane",C10H22,CCC(C)CC(C)(C)CC,1505.642198,-61.79978142
"3,4,4-trimethylheptane",C10H22,CCCC(C)(C)C(C)CC,1506.024607,-61.31937936
"3,4,5-trimethylheptane",C10H22,CCC(C)C(C)C(C)CC,1506.813327,-60.43027704
"2,2,3-trimethylhexane",C9H20,CCCC(C)C(C)(C)C,1358.390601,-57.65063726
"2,2,4-trimethylhexane",C9H20,CCC(C)CC(C)(C)C,1358.103794,-58.1262592
"2,2,5-trimethylhexane",C9H20,CC(C)CCC(C)(C)C,1355.785436,-60.5402198
"2,3,3-trimethylhexane",C9H20,CCCC(C)(C)C(C)C,1358.7969111999998,-57.1941358
"2,3,4-trimethylhexane",C9H20,CCC(C)C(C)C(C)C,1359.56173,-56.2620124
"2,3,5-trimethylhexane",C9H20,CC(C)CC(C)C(C)C,1358.055993,-57.9828556
"2,4,4-trimethylhexane",C9H20,CCC(C)(C)CC(C)C,1358.7969111999998,-57.36144
"3,3,4-trimethylhexane",C9H20,CCC(C)C(C)(C)CC,1359.705134,-56.2620124
"1,2,3-trimethylindene",C12H14,CC1C(=C(C2=CC=CC=C12)C)C,1545.484498,12.3566102
"1,2,3-trimethylnaphthalene",C13H14,CC1=CC2=CC=CC=C2C(=C1C)C,1624.404279,13.623342
"1,2,4-trimethylnaphthalene",C13H14,CC1=CC(=C(C2=CC=CC=C12)C)C,1624.42818,13.623342
"1,2,5-trimethylnaphthalene",C13H14,CC1=C2C=CC(=C(C2=CC=C1)C)C,1624.475981,13.623342
"1,2,6-trimethylnaphthalene",C13H14,CC1=CC2=C(C=C1)C(=C(C=C2)C)C,1629.088797,13.623342
"1,2,7-trimethylnaphthalene",C13H14,CC1=CC2=C(C=C1)C=CC(=C2C)C,1624.523782,13.623342
"1,2,8-trimethylnaphthalene",C13H14,CC1=C2C(=C(C=CC2=CC=C1)C)C,1624.356478,13.623342
"1,3,5-trimethylnaphthalene",C13H14,CC1=C2C=C(C=C(C2=CC=C1)C)C,1624.356478,13.623342
"1,3,6-trimethylnaphthalene",C13H14,CC1=CC2=CC(=CC(=C2C=C1)C)C,1624.475981,13.623342
"1,3,7-trimethylnaphthalene",C13H14,CC1=CC2=C(C=C(C=C2C=C1)C)C,1629.088797,13.623342
"1,3,8-trimethylnaphthalene",C13H14,CC1=C2C(=CC(=CC2=CC=C1)C)C,1624.356478,13.623342
"1,4,5-trimethylnaphthalene",C13H14,CC1=C2C(=CC=C(C2=CC=C1)C)C,1624.356478,13.623342
"1,4,6-trimethylnaphthalene",C13H14,CC1=CC2=C(C=CC(=C2C=C1)C)C,1624.523782,13.623342
"2,3,6-trimethylnaphthalene",C13H14,CC1=CC2=C(C=C1)C=C(C(=C2)C)C,1624.547683,13.623342
"1,6,7-trimethylnaphthalene",C13H14,CC1=C2C=C(C(=CC2=CC=C1)C)C,1640.800091,13.623342
"2,2,3-trimethylnonane",C12H26,CCCCCCC(C)C(C)(C)C,1797.444623,-72.5622216
"2,2,4-trimethylnonane",C12H26,CCCCCC(C)CC(C)(C)C,1797.157816,-73.0402336
"2,2,5-trimethylnonane",C12H26,CCCCC(C)CCC(C)(C)C,1795.460873,-74.7371762
"2,2,6-trimethylnonane",C12H26,CCCC(C)CCCC(C)(C)C,1795.484774,-74.7371762
"2,2,7-trimethylnonane",C12H26,CCC(C)CCCCC(C)(C)C,1795.34137,-74.7849774
"2,2,8-trimethylnonane",C12H26,CC(C)CCCCCC(C)(C)C,1794.791656,-75.3346912
"2,3,3-trimethylnonane",C12H26,CCCCCCC(C)(C)C(C)C,1798.209442,-71.7496012
"2,3,4-trimethylnonane",C12H26,CCCCCC(C)C(C)C(C)C,1799.237168,-70.7696766
"2,3,5-trimethylnonane",C12H26,CCCCC(C)CC(C)C(C)C,1797.970436,-72.1320108
"2,3,6-trimethylnonane",C12H26,CCCC(C)CCC(C)C(C)C,1797.7792313999998,-72.2754144
"2,3,7-trimethylnonane",C12H26,CCC(C)CCCC(C)C(C)C,1797.659728,-72.3232156
"2,3,8-trimethylnonane",C12H26,CC(C)CCCCC(C)C(C)C,1797.1339151999998,-72.8729294
"2,4,4-trimethylnonane",C12H26,CCCCCC(C)(C)CC(C)C,1797.922635,-72.299315
"2,4,5-trimethylnonane",C12H26,CCCCC(C)C(C)CC(C)C,1798.161641,-71.9647066
"2,4,6-trimethylnonane",C12H26,CCCC(C)CC(C)CC(C)C,1797.229518,-72.9685318
"2,4,7-trimethylnonane",C12H26,CCC(C)CCC(C)CC(C)C,1796.966611,-73.1836372
"2,4,8-trimethylnonane",C12H26,CC(C)CCCC(C)CC(C)C,1796.464698,-73.733351
"2,5,5-trimethylnonane",C12H26,CCCCC(C)(C)CCC(C)C,1796.2256923999998,-73.9962576
"2,5,6-trimethylnonane",C12H26,CCCC(C)C(C)CCC(C)C,1797.970436,-72.1320108
"2,5,7-trimethylnonane",C12H26,CCC(C)CC(C)CCC(C)C,1796.966611,-73.1836372
"2,5,8-trimethylnonane",C12H26,CC(C)CCC(C)CCC(C)C,1796.321295,-73.8767546
"2,6,6-trimethylnonane",C12H26,CCCC(C)(C)CCCC(C)C,1796.2256923999998,-73.9962576
"2,6,7-trimethylnonane",C12H26,CCC(C)C(C)CCCC(C)C,1797.850933,-72.179812
"2,7,7-trimethylnonane",C12H26,CCC(C)(C)CCCCC(C)C,1796.058388,-74.0201582
"3,3,4-trimethylnonane",C12H26,CCCCCC(C)C(C)(C)CC,1798.950361,-71.0086826
"3,3,5-trimethylnonane",C12H26,CCCCC(C)CC(C)(C)CC,1798.496249,-71.7257006
"3,3,7-trimethylnonane",C12H26,CCC(C)CCCC(C)(C)CC,1796.679804,-73.4465438
"3,3,6-trimethylnonane",C12H26,CCCC(C)CCC(C)(C)CC,1796.584201,-73.4704444
"3,4,4-trimethylnonane",C12H26,CCCCCC(C)(C)C(C)CC,1798.998162,-71.0086826
"3,4,5-trimethylnonane",C12H26,CCCCC(C)C(C)C(C)CC,1799.954186,-70.0526586
"3,4,6-trimethylnonane",C12H26,CCCC(C)CC(C)C(C)CC,1798.663554,-71.4149928
"3,4,7-trimethylnonane",C12H26,CCC(C)CCC(C)C(C)CC,1798.3767463999998,-71.6300982
"3,5,5-trimethylnonane",C12H26,CCCCC(C)(C)CC(C)CC,1798.448448,-71.7496012
"3,5,6-trimethylnonane",C12H26,CCCC(C)C(C)CC(C)CC,1798.663554,-71.4149928
"3,5,7-trimethylnonane",C12H26,CCC(C)CC(C)CC(C)CC,1797.659728,-72.4666192
"3,6,6-trimethylnonane",C12H26,CCCC(C)(C)CCC(C)CC,1796.775406,-73.4465438
"4,4,5-trimethylnonane",C12H26,CCCCC(C)C(C)(C)CCC,1799.069864,-70.984782
"4,4,6-trimethylnonane",C12H26,CCCC(C)CC(C)(C)CCC,1798.496249,-71.7018