Name,Formula,SMILES,Enthalpy_combustion (kcal/mol),Enthalpy_formation (kcal/mol)
abietic acid,C20H30O2,CC(C)C1=CC2=CC[C@@H]3[C@@]([C@H]2CC1)(CCC[C@@]3(C)C(=O)O)C,2619.50576,-128.346222
acenaphthene,C12H10,C1CC2=CC=CC3=C2C1=CC=C3,1437.286482,37.04593
acetal,C6H14O2,CCOC(C)OCC,852.05639,-108.389221
acetaldehyde,C2H4O,CC=O,263.9582264,-39.7227972
acetamide,C2H5NO,CC(=O)N,238.9103976,-56.9551298
acetanilide,C8H9NO,CC(=O)NC1=CC=CC=C1,730.5457395999999,-30.712271
acetic acid,C2H4O2,CC(=O)O,194.78989,-103.3222938
acetic anhydride,C4H6O3,CC(=O)OC(=O)C,402.2231974,-137.6005343
acetone,C3H6O,CC(=O)C,396.510954,-51.8882026
acetone cyanohydrin,C4H7NO,CC(C)(C#N)O,476.81697,-31.787798
acetonitrile,C2H3N,CC#N,266.4438888,15.3919864
acetophenone,C8H8O,CC(=O)C1=CC=CC=C1,952.2955064,-20.6979196
acetylacetone,C5H8O2,CC(=O)CC(=O)C,600.8371834,-90.82228
acetyl chloride,C2H3ClO,CC(=O)Cl,209.5843614,-58.0306568
acetylene,C2H2,C#C,300.430542,54.5411692
acrolein,C3H4O,C=CC=O,370.7222066,-20.076504
acrylamide,C3H5NO,C=CC(=O)N,330.8560058,-40.63102
acrylic acid,C3H4O2,C=CC(=O)O,310.2536886,-77.318441
acrylonitrile,C3H3N,C=CC#N,380.6648562,43.1644836
adipic acid,C6H10O4,C(CCC(=O)O)CC(=O)O,620.7463832,-206.7497502
adiponitrile,C6H8N2,C(CCC#N)CC#N,547.6105471999999,35.731397
allene,C3H4,C=C=C,443.35613,45.6262454
allyl acetate,C5H8O2,CC(=O)OCC=C,613.5762031999999,-79.828004
allyl alcohol,C3H6O,C=CCO,414.4842052,-31.5248914
allylamine,C3H7N,C=CCN,452.5100598,13.9101492
3-amino-1-propanol,C3H9NO,C(CN)CO,434.4651068,-52.820326
"2-amino-2,3-dimethylbutane",C6H15N,CC(C)C(C)(C)N,769.957829,-37.3566378
1-amino-2-ethylbutane,C6H15N,CCC(CC)CN,773.6385214000001,-32.4331142
1-amino-2-methylpentane,C6H15N,CCCC(C)CN,774.9291538,-32.9111262
1-amino-2-propanol,C3H9NO,CC(CN)O,432.2901522,-57.122434
"2-amino-3,3-dimethyl butane",C6H15N,CC(C(C)(C)C)N,770.6031452,-36.5918186
1-amino-3-methylpentane,C6H15N,CCC(C)CCN,774.8096508,-32.9111262
2-amino-3-methylpentane,C6H15N,CCC(C)C(C)N,772.467392,-34.775373
3-amino-3-methylpentane,C6H15N,CCC(C)(CC)N,770.8421512,-36.3528126
2-amino-4-methylpentane,C6H15N,CC(C)CC(C)N,771.98938,-35.731397
p-aminoazobenzene,C12H11N3,C1=CC=C(C=C1)N=NC2=CC=C(C=C2)N,329.6848764,78.87198
p-aminodiphenyl,C12H11N,C1=CC=C(C=C1)C2=CC=C(C=C2)N,1092.114016,43.977104
p-aminodiphenylamine,C12H12N2,C1=CC=C(C=C1)NC2=CC=C(C=C2)N,724.1403788,49.235236
2-aminoethoxyethanol,C4H11NO2,C(COCCO)N,530.4499164,-87.23719
2-aminohexane,C6H15N,CCCCC(C)N,773.6385214000001,-34.3690628
3-aminohexane,C6H15N,CCCC(CC)N,773.8536268,-33.8910508
p-tert-amylphenol,C11H16O,CCC(C)(C)C1=CC=C(C=C1)O,1429.279781,-50.669272
anethole,C10H12O,C/C=C/C1=CC=C(C=C1)OC,1265.91918,-9.918749
aniline,C6H7N,C1=CC=C(C=C1)N,642.5437304,20.76006116
anisole,C7H8O,COC1=CC=CC=C1,863.8632864,-16.252408
anthracene,C14H10,C1=CC=C2C=C3C=CC=CC3=CC2=C1,1639.915768,54.4216662
anthraquinone,C14H8O2,C1=CC=C2C(=C1)C(=O)C3=CC=CC=C3C2=O,1502.4873183999998,-22.7533712
ascorbic acid,C6H8O6,C([C@@H]([C@@H]1C(=C(C(=O)O1)O)O)O)O,568.1650632,-227.294706
azelaic acid,C9H16O4,C(CCCC(=O)O)CCCC(=O)O,1059.5853,-221.558562
azulene,C10H8,C1=CC=C2C=CC=C2C=C1,1238.5529926000002,66.89777939999999
benzaldehyde,C7H6O,C1=CC=C(C=C1)C=O,812.859406,-8.7954208
benzene,C6H6,C1=CC=CC=C1,750.1442316,19.813597400000003
"1,2,3-benzenetriol",C6H6O3,C1=CC(=C(C(=C1)O)O)O,610.301821,-106.596676
benzoic acid,C7H6O2,C1=CC=C(C=C1)C(=O)O,746.3918374,-69.3356406
benzonitrile,C7H5N,C1=CC=C(C=C1)C#N,656.8601898000001,52.2945128
benzophenone,C13H10O,C1=CC=C(C=C1)C(=O)C2=CC=CC=C2,1508.438568,14.101354
benzothiophene,C8H6S,C1=CC=C2C(=C1)C=CS2,1023.112984,39.7466978
benzotrichloride,C7H5Cl3,C1=CC=C(C=C1)C(Cl)(Cl)Cl,790.0582336,-2.94933404
benzotrifluoride,C7H5F3,C1=CC=C(C=C1)C(F)(F)F,651.5542565999999,-143.4036
benzoyl chloride,C7H5ClO,C1=CC=C(C=C1)C(=O)Cl,767.2331606,-25.1673318
benzyl acetate,C9H10O2,CC(=O)OCC1=CC=CC=C1,1050.861581,-73.89109496
benzyl alcohol,C7H8O,C1=CC=C(C=C1)CO,853.1558176,-23.9962024
benzylamine,C7H9N,C1=CC=C(C=C1)CN,729.326809,14.87334338
benzyl benzoate,C14H12O2,C1=CC=C(C=C1)COC(=O)C2=CC=CC=C2,1603.754161,-45.650146
benzyl chloride,C7H7Cl,C1=CC=C(C=C1)CCl,855.3785734,4.4694122
benzyl dichloride,C7H6Cl2,C1=CC=C(C=C1)C(Cl)Cl,824.8575072,3.107078
benzyl ethyl ether,C9H12O,CCOCC1=CC=CC=C1,1155.737414,-27.48569
biacetylene,C4H2,C#CC#C,541.5397948,107.5527
bicyclohexyl,C12H22,C1CCC(CC1)C2CCCCC2,1688.649092,-65.009632
bis(chloromethyl) ether,C2H4Cl2O,C(OCCl)Cl,237.7392682,-57.600446
bisphenol a,C15H16O2,CC(C)(C1=CC=C(C=C1)O)C2=CC=C(C=C2)O,1790.107139,-58.6998736
cis-1-bromo-1-butene,C4H7Br,CC/C=C/Br,571.463346,4.22084596
trans-1-bromo-1-butene,C4H7Br,CC/C=C/Br,571.2721412,4.22084596
2-bromo-1-butene,C4H7Br,CCC(=C)Br,571.22434,3.84321648
3-bromo-1-butene,C4H7Br,CC(C=C)Br,571.7979544,4.92113354
4-bromo-1-butene,C4H7Br,C=CCCBr,573.1124874,6.18308522
cis-1-bromo-1-hexene,C6H11Br,CCCC/C=C\Br,863.9827894,-5.64532172
trans-1-bromo-1-hexene,C6H11Br,CCCC/C=C/Br,863.9827894,-5.64532172
2-bromo-1-pentene,C5H9Br,CCCC(=C)Br,717.496012,-1.08986736
3-bromo-1-pentene,C5H9Br,CCC(C=C)Br,718.5476384,-0.0119503
4-bromo-1-pentene,C5H9Br,CC(CC=C)Br,718.5237378,-0.0119503
5-bromo-1-pentene,C5H9Br,C=CCCCBr,719.3363582,1.25000138
cis-1-bromo-1-propene,C3H5Br,C/C=C\Br,425.789189,9.7514448
trans-1-bromo-1-propene,C3H5Br,C/C=C/Br,426.4106046,10.4923634
2-bromo-1-propene,C3H5Br,CC(=C)Br,427.2710262,10.994276
3-bromo-1-propene,C3H5Br,C=CCBr,427.342728,11.799726219999998
"1-bromo-2,2-dimethylbutane",C6H13Br,CCC(C)(C)CBr,892.6157082,-34.92355672
"1-bromo-2,2-dimethylpropane",C5H11Br,CC(C)(C)CBr,745.7465212,-30.8198237
"1-bromo-2,3-dimethylbutane",C6H13Br,CC(C)C(C)CBr,891.8747896,-35.75290754
"2-bromo-2,3-dimethylbutane",C6H13Br,CC(C)C(C)(C)Br,891.8508889999999,-35.75290754
1-bromo-2-ethylbutane,C6H13Br,CCC(CC)CBr,890.6080578,-37.01485922
4-bromo-2-methyl-1-butene,C5H9Br,CC(=C)CCBr,717.615515,-1.08986736
1-bromo-2-methyl-1-propene,C4H7Br,CC(=CBr)C,569.0732859999999,1.88097722
3-bromo-2-methyl-1-propene,C4H7Br,CC(=C)CBr,570.9136321999999,3.84321648
1-bromo-2-methylbutane,C5H11Br,CCC(C)CBr,746.1050302,-29.99047288
2-bromo-2-methylbutane,C5H11Br,CCC(C)(C)Br,745.69872,-30.8198237
1-bromo-2-methylpentane,C6H13Br,CCCC(C)CBr,892.448404,-34.92355672
2-bromo-2-methylpentane,C6H13Br,CCCC(C)(C)Br,892.1615968,-35.75290754
3-bromo-2-methylpentane,C6H13Br,CCC(C(C)C)Br,891.5879824,-36.1855084
1-bromo-2-methylpropane,C4H9Br,CC(C)CBr,592.9021842,-32.026804
2-bromo-2-methylpropane,C4H9Br,CC(C)(C)Br,593.4996991999999,-31.9790028
1-bromo-trans-2-pentene,C5H9Br,CCC=CCBr,717.5199126,-0.71223788
"1-bromo-3,3-dimethylbutane",C6H13Br,CC(C)(C)CCBr,891.4206782,-36.1855084
"2-bromo-3,3-dimethylbutane",C6H13Br,CC(C(C)(C)C)Br,890.5841571999999,-37.01485922
2-bromo-3-methyl-1-butene,C5H9Br,CC(C)C(=C)Br,716.4682862,-2.35181904
1-bromo-3-methyl-2-butene,C5H9Br,CC(=CCBr)C,715.5122621999999,-3.05210662
2-bromo-3-methyl-2-butene,C5H9Br,CC(=C(C)Br)C,713.074401,-5.39197536
1-bromo-3-methylbutane,C5H11Br,CC(C)CCBr,746.1050302,-29.99047288
2-bromo-3-methylbutane,C5H11Br,CC(C)C(C)Br,745.0295031999999,-31.25242456
1-bromo-3-methylpentane,C6H13Br,CCC(C)CCBr,892.3528016,-34.92355672
2-bromo-3-methylpentane,C6H13Br,CCC(C)C(C)Br,891.5879824,-36.1855084
3-bromo-3-methylpentane,C6H13Br,CCC(C)(CC)Br,892.1615968,-35.75290754
1-bromo-4-methylpentane,C6H13Br,CC(C)CCCBr,892.3767022,-34.92355672
2-bromo-4-methylpentane,C6H13Br,CC(C)CC(C)Br,891.5401811999999,-36.1855084
bromobenzene,C6H5Br,C1=CC=C(C=C1)Br,720.961599,24.9044252
1-bromobutane,C4H9Br,CCCCBr,598.6622288,-25.65012392
2-bromobutane,C4H9Br,CCC(C)Br,592.73488,-32.0985058
bromochlorodifluoromethane,CBrClF2,C(F)(F)(Cl)Br,-13.6711432,-104.0154112
bromochloromethane,CH2BrCl,C(Cl)Br,129.9953634,-10.7074688
1-bromodecane,C10H21Br,CCCCCCCCCCBr,1478.777923,-53.3939404
1-bromodocosane,C22H45Br,CCCCCCCCCCCCCCCCCCCCCCBr,3224.525548,-112.5909465
1-bromododecane,C12H25Br,CCCCCCCCCCCCBr,1772.420695,-63.26010808
1-bromodotriacontane,C32H65Br,CCCCCCCCCCCCCCCCCCCCCCCCCCCCCCCCBr,4685.33022,-161.9217849
1-bromoeicosane,C20H41Br,CCCCCCCCCCCCCCCCCCCCBr,2932.460216,-102.7247788
bromoethane,C2H5Br,CCBr,307.0988094,-15.2007816
bromoform,CHBr3,C(Br)(Br)Br,106.8834832,3.9914002
1-bromoheneicosane,C21H43Br,CCCCCCCCCCCCCCCCCCCCCBr,3078.492882,-107.6578626
1-bromohentriacontane,C31H63Br,CCCCCCCCCCCCCCCCCCCCCCCCCCCCCCCBr,4539.225853,-156.988701
1-bromoheptacosane,C27H55Br,CCCCCCCCCCCCCCCCCCCCCCCCCCCBr,3954.832282,-137.2563657
1-bromoheptadecane,C17H35Br,CCCCCCCCCCCCCCCCCBr,2494.481721,-87.92552728
1-bromoheptane,C7H15Br,CCCCCCCBr,1038.146462,-40.153008
1-bromoheptatriacontane,C37H75Br,CCCCCCCCCCCCCCCCCCCCCCCCCCCCCCCCCCCCCBr,5415.923761,-186.5872041
1-bromohexacosane,C26H53Br,CCCCCCCCCCCCCCCCCCCCCCCCCCBr,3808.751815,-132.3232818
1-bromohexadecane,C16H33Br,CCCCCCCCCCCCCCCCBr,2358.630711,-82.99244344
1-bromohexane,C6H13Br,CCCCCCBr,893.3805274,-33.66160504
2-bromohexane,C6H13Br,CCCCC(C)Br,892.448404,-34.92355672
3-bromohexane,C6H13Br,CCCC(CC)Br,892.4962052,-34.92355672
1-bromohexatriacontane,C36H73Br,CCCCCCCCCCCCCCCCCCCCCCCCCCCCCCCCCCCCBr,5269.819393,-181.6541202
1-bromonaphthalene,C10H7Br,C1=CC=C2C(=C1)C=CC=C2Br,1170.412382,43.499092
1-bromononacosane,C29H59Br,CCCCCCCCCCCCCCCCCCCCCCCCCCCCCBr,4247.017117,-147.1225334
1-bromononadecane,C19H39Br,CCCCCCCCCCCCCCCCCCCBr,2786.451451,-97.79169496
1-bromononane,C9H19Br,CCCCCCCCCBr,1332.3867481999998,-48.46085656
1-bromononatriacontane,C39H79Br,CCCCCCCCCCCCCCCCCCCCCCCCCCCCCCCCCCCCCCCBr,5708.228099,-196.4533718
1-bromooctacosane,C28H57Br,CCCCCCCCCCCCCCCCCCCCCCCCCCCCBr,4100.93665,-142.1894495
1-bromooctadecane,C18H37Br,CCCCCCCCCCCCCCCCCCBr,2640.466586,-92.85861112
1-bromooctane,C8H17Br,CCCCCCCCBr,1186.019474,-43.52777272
1-bromooctatriacontane,C38H77Br,CCCCCCCCCCCCCCCCCCCCCCCCCCCCCCCCCCCCCCBr,5562.07593,-191.5202879
1-bromopentacosane,C25H51Br,CCCCCCCCCCCCCCCCCCCCCCCCCBr,3662.719149,-127.390198
1-bromopentadecane,C15H31Br,CCCCCCCCCCCCCCCBr,2212.048331,-78.0593596
1-bromopentane,C5H11Br,CCCCCBr,745.2924098000001,-30.87001496
2-bromopentane,C5H11Br,CCCC(C)Br,746.176732,-29.99047288
1-bromopentatriacontane,C35H71Br,CCCCCCCCCCCCCCCCCCCCCCCCCCCCCCCCCCCBr,5123.691125,-176.7210364
1-bromopropane,C3H7Br,CCCBr,452.7012646,-20.793522
2-bromopropane,C3H7Br,CC(C)Br,450.645813,-23.183582
1-bromotetracontane,C40H81Br,CCCCCCCCCCCCCCCCCCCCCCCCCCCCCCCCCCCCCCCCBr,5854.356367599999,-201.3864556
1-bromotetracosane,C24H49Br,CCCCCCCCCCCCCCCCCCCCCCCCBr,3516.638682,-122.4571142
1-bromotetradecane,C14H29Br,CCCCCCCCCCCCCCBr,2065.513753,-73.12627576
1-bromotetratriacontane,C34H69Br,CCCCCCCCCCCCCCCCCCCCCCCCCCCCCCCCCCBr,4977.562857,-171.7879526
p-bromotoluene,C7H7Br,CC1=CC=C(C=C1)Br,862.81166,19.2160824
1-bromotriacontane,C30H61Br,CCCCCCCCCCCCCCCCCCCCCCCCCCCCCCBr,4393.097584,-152.0556172
bromotrichloromethane,CBrCl3,C(Cl)(Cl)(Cl)Br,73.374842,-9.2973334
1-bromotricosane,C23H47Br,CCCCCCCCCCCCCCCCCCCCCCCBr,3370.582115,-117.5240303
1-bromotridecane,C13H27Br,CCCCCCCCCCCCCBr,1918.931373,-68.19319192
bromotrifluoroethylene,C2BrF3,C(=C(F)Br)(F)F,75.645399,-108.74773
bromotrifluoromethane,CBrF3,C(F)(F)(F)Br,-64.9618308,-155.3060988
1-bromotritriacontane,C33H67Br,CCCCCCCCCCCCCCCCCCCCCCCCCCCCCCCCCBr,4831.458489,-166.8548687
1-bromoundecane,C11H23Br,CCCCCCCCCCCBr,1625.192999,-58.32702424
"1,2-butadiene",C4H6,CC=C=C,588.3610702,38.7906738
butane,C4H10,CCCC,634.8477372,-30.3059608
"1,2-butanediol",C4H10O2,CCC(CO)O,546.009207,-106.35767
"1,3-butanediol",C4H10O2,CC(CCO)O,543.5952464000001,-108.030712
"1,4-butanediol",C4H10O2,C(CCO)CO,547.9451556,-102.294568
butanol,C4H10O,CCCCO,589.1975911999999,-65.6310476
sec-butanol,C4H10O,CCC(C)O,585.3734952,-69.9809568
tert-butanol,C4H10O,CC(C)(C)O,579.3027428,-74.6654744
1-butene,C4H8,CCC=C,607.2425442,-0.119503
cis-2-butene,C4H8,C/C=C\C,605.5934028,-1.7686444
trans-2-butene,C4H8,C/C=C/C,604.7329811999999,-2.629066
"cis-2-butene-1,4-diol",C4H8O2,C(/C=C\CO)O,521.869601,-70.50677
"trans-2-butene-1,4-diol",C4H8O2,C(/C=C/CO)O,517.1611828,-71.7018
cis-2-butenoic acid,C4H6O2,C/C=C\C(=O)O,453.1792766,-84.727627
trans-2-butenoic acid,C4H6O2,C/C=C/C(=O)O,444.431657,-90.344268
2-butoxyethanol,C6H14O2,CCCCOCCO,852.414899,-105.401646
"2-sec-butyl-1,3-propanediol",C7H16O2,CCC(C)C(CO)CO,1003.371089,-117.3041448
butyl acetate,C6H12O2,CCCCOC(=O)C,786.32974,-115.9896118
sec-butyl acetate,C6H12O2,CCC(C)OC(=O)C,782.3383398000001,-120.4112228
tert-butyl acetate,C6H12O2,CC(=O)OC(C)(C)C,778.2513372,-125.000138
butyl acrylate,C7H12O2,CCCCOC(=O)C=C,901.7218368,-94.4193203
butylamine,C4H11N,CCCCN,589.1975911999999,-21.988552
sec-butylamine,C4H11N,CCC(C)N,586.4490222,-25.0119779
tert-butylamine,C4H11N,CC(C)(C)N,583.0790376,-28.8480242
butylbenzene,C10H14,CCCCC1=CC=CC=C1,1332.243345,-3.14053884
sec-butylbenzene,C10H14,CCC(C)C1=CC=CC=C1,1331.64583,-4.0392014
tert-butylbenzene,C10H14,CC(C)(C)C1=CC=CC=C1,1330.665905,-5.16969978
butyl benzoate,C11H14O2,CCCCOC(=O)C1=CC=CC=C1,1339.580829,-87.715202
butyl butanoate,C8H16O2,CCCCOC(=O)CCC,1079.637903,-125.4542494
sec-butyl butanoate,C8H16O2,CCCC(=O)OC(C)CC,1075.813807,-129.780258
tert-butyl butanoate,C8H16O2,CCCC(=O)OC(C)(C)C,1071.5116991999998,-134.5125768
p-tert-butylcatechol,C10H14O2,CC(C)(C)C1=CC(=C(C=C1)O)O,1255.16391,-89.866256
butylcyclohexane,C10H20,CCCCC1CCCCC1,1458.1995066000002,-50.94890902
butylcyclopentane,C9H18,CCCCC1CCCC1,1317.640078,-40.2247098
sec-butylcyclopentane,C9H18,CCCC1(CCCC1)C,1316.253843,-41.56075334
tert-butylcyclopentane,C9H18,CC(C)(C)C1CCCC1,1315.775831,-42.39010416
1-butylcyclopentene,C9H16,CCCCC1=CCCC1,1285.254765,-14.6271672
butyl dodecyl sulfide,C16H34S,CCCCCCCCCCCCSCCCC,2464.15186,-79.40018326
tert-butylformamide,C5H11NO,CC(C)(C)NC=O,590.8467326,-67.877704
butyl formate,C5H10O2,CCCCOC=O,648.5188804000001,-102.0794626
sec-butyl formate,C5H10O2,CCC(C)OC=O,645.2444982,-106.4532724
tert-butyl formate,C5H10O2,CC(C)(C)OC=O,640.7272848,-111.1616906
4-tert-butylheptane,C11H24,CCCC(CCC)C(C)(C)C,1653.802017,-65.0574332
butyl heptyl sulfide,C11H24S,CCCCCCCSCCCC,1732.076482,-54.77061496
butyl hexyl sulfide,C10H22S,CCCCCCSCCCC,1585.757009,-49.83992118
butyl isocyanate,C5H9NO,CCCCN=C=O,600.8849845999999,-30.353762
butyl isocyanide,C5H9N,CCCC[N+]#[C-],632.768385,9.56024
sec-butyl isocyanide,C5H9N,CCC(C)[N+]#[C-],632.887888,9.56024
tert-butyl isocyanide,C5H9N,CC(C)(C)[N+]#[C-],633.3659,9.56024
butyl mercaptan,C4H10S,CCCCS,707.2665552,-20.9847268
sec-butyl mercaptan,C4H10S,CCC(C)S,705.6174138,-23.0879796
tert-butyl mercaptan,C4H10S,CC(C)(C)S,703.155652,-26.1233558
butyl methacrylate,C8H14O2,CCCCOC(=O)C(=C)C,1042.090061,-100.860532
1-butylnaphthalene,C14H16,CCCCC1=CC=CC2=CC=CC=C21,1779.1367633999998,12.6792683
2-butylnaphthalene,C14H16,CCCCC1=CC2=CC=CC=C2C=C1,1778.706553,12.5000138
1-sec-butylnaphthalene,C14H16,CCC(C)C1=CC=CC2=CC=CC=C21,1774.2371403999998,12.2610078
2-sec-butylnaphthalene,C14H16,CCC(C)C1=CC2=CC=CC=C2C=C1,1774.2371403999998,12.2610078
1-tert-butylnaphthalene,C14H16,CC(C)(C)C1=CC=CC2=CC=CC=C21,1779.614775,12.2610078
2-tert-butylnaphthalene,C14H16,CC(C)(C)C1=CC2=CC=CC=C2C=C1,1779.566974,12.2610078
butyl nonanoate,C13H26O2,CCCCCCCCC(=O)OCCCC,1811.904486,-149.9523644
4-tert-butyloctane,C12H26,CCCCC(CCC)C(C)(C)C,1800.193192,-70.0048574
butyl octyl sulfide,C12H26S,CCCCCCCCSCCCC,1878.419856,-59.68935844
butyl pentyl sulfide,C9H20S,CCCCCSCCCC,1439.461436,-44.9211777
2-butylphenol,C10H14O,CCCCC1=CC=CC=C1O,1288.2662406000002,-45.53303306
3-butylphenol,C10H14O,CCCCC1=CC(=CC=C1)O,1282.147687,-45.53303306
4-butylphenol,C10H14O,CCCCC1=CC=C(C=C1)O,1287.788229,-45.53303306
2-sec-butylphenol,C10H14O,CCC(C)C1=CC=CC=C1O,1287.095111,-46.79498474
3-sec-butylphenol,C10H14O,CCC(C)C1=CC(=CC=C1)O,1282.171588,-46.79498474
4-sec-butylphenol,C10H14O,CCC(C)C1=CC=C(C=C1)O,1282.0520846000002,-46.79498474
2-tert-butylphenol,C10H14O,CC(C)(C)C1=CC=CC=C1O,1286.569298,-47.62433556
3-tert-butylphenol,C10H14O,CC(C)(C)C1=CC(=CC=C1)O,1282.506196,-47.62433556
butyl propanoate,C7H14O2,CCCCOC(=O)CC,933.5096348,-120.1244156
tert-butyl propanoate,C7H14O2,CCC(=O)OC(C)(C)C,928.3710058,-124.6894302
butyl stearate,C22H44O2,CCCCCCCCCCCCCCCCCC(=O)OCCCC,3117.140153,-195.8104456
butyl valerate,C9H18O2,CCCCC(=O)OCCCC,1222.276684,-133.8911612
butyl vinyl ether,C6H12O,CCCCOC=C,859.4416754,-43.738098
"2-butyne-1,4-diol",C4H6O2,C(C#CCO)O,491.9699504,-37.04593
butyraldehyde,C4H8O,CCCC=O,550.2874144,-49.474242
butyric acid,C4H8O2,CCCC(=O)O,483.3418338,-113.1932416
butyric anhydride,C8H14O3,CCCC(=O)OC(=O)CCC,987.8595992,-157.8993139
gamma-butyrolactone,C4H6O2,C1CC(=O)OC1,448.7576656,-90.583274
butyronitrile,C4H7N,CCCC#N,518.3562128,8.006701
camphene,C10H16,CC1(C2CCC(C2)C1=C)C,1379.709936,-6.8355716
camphor,C10H16O,CC1(C2CCC1(C(=O)C2)C)C,1329.805483,-61.424542
carbon disulfide,CS2,C(=S)=S,257.0748536,27.9876026
carbon monoxide,CO,[C-]#[O+],67.638698,-26.410163
carbon tetrabromide,CBr4,C(Br)(Br)(Br)Br,86.400669,19.000977
carbon tetrachloride,CCl4,C(Cl)(Cl)(Cl)Cl,64.02970739999999,-22.8967748
carbon tetrafluoride,CF4,C(F)(F)(F)F,-129.06324,-223.112101
carbon tetraiodide,CI4,C(I)(I)(I)I,113.8624584,64.02970739999999
carbonyl fluoride,CF2O,C(=O)(F)F,-58.9388796,-152.9877406
carbonyl sulfide,COS,C(=O)=S,131.931312,-33.0545298
"2-chloro-1,1,1,2-tetrafluoroethane",C2HClF4,C(C(F)(F)F)(F)Cl,-4.0153008,-221.0088482
"2-chloro-1,1,1-trifluoroethane",C2H2ClF3,C(C(F)(F)F)Cl,67.0889842,-178.8003886
"1-chloro-1,1,2,2-tetrafluoroethane",C2HClF4,C(C(F)(F)Cl)(F)F,2.1749546,-214.8233729
"1-chloro-1,1,2-trifluoroethane",C2H2ClF3,C(C(F)(F)Cl)F,79.20658839999999,-166.6899546
"1-chloro-1,1-difluoroethane",C2H3ClF2,CC(F)(F)Cl,148.18372,-126.6014782
"2-chloro-1,1-difluoroethane",C2H3ClF2,C(C(F)F)Cl,149.498253,-118.9891371
"2-chloro-1,1-difluoroethylene",C2HClF2,C(=C(F)F)Cl,137.59575420000002,-79.3977932
"1-chloro-1,2,2-trifluoroethane",C2H2ClF3,C(C(F)Cl)(F)F,78.7763776,-167.1225554
"1-chloro-1,2-difluoroethane",C2H3ClF2,C(C(F)Cl)F,155.8080114,-118.9891371
cis-1-chloro-1-butene,C4H7Cl,CC/C=C\Cl,565.7989038000001,-5.83413646
trans-1-chloro-1-butene,C4H7Cl,CC/C=C/Cl,565.7033014,-5.83413646
2-chloro-1-butene,C4H7Cl,CCC(=C)Cl,565.5598978,-6.21176594
3-chloro-1-butene,C4H7Cl,CC(C=C)Cl,566.5398224,-5.13384888
4-chloro-1-butene,C4H7Cl,C=CCCCl,567.5197469999999,-3.8718972
1-chloro-1-fluoroethane,C2H4ClF,CC(F)Cl,228.6809408,-75.0000828
trans-1-chloro-1-hexene,C6H11Cl,CCCC/C=C/Cl,858.2944466,-15.70030414
cis-1-chloro-1-octene,C8H15Cl,CCCCCC/C=C\Cl,1150.766089,-25.56647182
trans-1-chloro-1-octene,C8H15Cl,CCCCCC/C=C/Cl,1150.766089,-25.56647182
2-chloro-1-pentene,C5H9Cl,CCCC(=C)Cl,711.8076692,-11.14484978
3-chloro-1-pentene,C5H9Cl,CCC(C=C)Cl,712.7875938000001,-10.06693272
4-chloro-1-pentene,C5H9Cl,CC(CC=C)Cl,712.6919914,-10.06693272
5-chloro-1-pentene,C5H9Cl,C=CCCCCl,713.7675184,-8.80498104
cis-1-chloro-1-propene,C3H5Cl,C/C=C\Cl,419.575033,-0.90105262
trans-1-chloro-1-propene,C3H5Cl,C/C=C/Cl,419.4794306,-0.90105262
2-chloro-1-propene,C3H5Cl,CC(=C)Cl,421.606584,-5.019126
3-chloro-1-propene,C3H5Cl,C=CCCl,420.1964486,-0.15057378
"1-chloro-2,2-dimethylbutane",C6H13Cl,CCC(C)(C)CCl,886.234248,-45.80788996
"1-chloro-2,2-dimethylpropane",C5H11Cl,CC(C)(C)CCl,735.7799709999999,-45.172134
"1-chloro-2,3-dimethylbutane",C6H13Cl,CC(C)C(C)CCl,885.6128324,-46.24049082
"2-chloro-2,3-dimethylbutane",C6H13Cl,CC(C)C(C)(C)Cl,885.158721,-47.06984164
"1-chloro-2,4-dinitrobenzene",C6H3ClN2O4,C1=CC(=C(C=C1[N+](=O)[O-])[N+](=O)[O-])Cl,381.4057748,8.3891106
3-chloro-2-ethyl-1-propene,C5H9Cl,CCC(=C)CCl,711.759868,-11.14484978
1-chloro-2-fluoroethane,C2H4ClF,C(CCl)F,227.7010162,-69.31174
3-chloro-2-methyl-1-butene,C5H9Cl,CC(C(=C)C)Cl,710.4931362,-12.40680146
1-chloro-2-methyl-1-propene,C4H7Cl,CC(=CCl)C,563.4088438,-8.1740052
3-chloro-2-methyl-1-propene,C4H7Cl,CC(=C)CCl,565.2730905999999,-6.21176594
1-chloro-2-methylbutane,C5H11Cl,CCC(C)CCl,737.6681184,-42.782074
2-chloro-2-methylbutane,C5H11Cl,CCC(C)(C)Cl,732.672893,-48.3509138
1-chloro-2-methylpentane,C6H13Cl,CCCC(C)CCl,886.8556636,-44.97853914
2-chloro-2-methylpentane,C6H13Cl,CCCC(C)(C)Cl,886.353751,-45.80788996
3-chloro-2-methylpentane,C6H13Cl,CCC(C(C)C)Cl,885.8518384,-46.24049082