Name,Formula,SMILES,Enthalpy_combustion (kcal/mol),Enthalpy_formation (kcal/mol)
2-methylheptadecane,C18H38,CCCCCCCCCCCCCCCC(C)C,2678.038329,-100.4135908
3-methylheptadecane,C18H38,CCCCCCCCCCCCCCC(C)CC,2678.014429,-100.4135908
2-methylheptane,C8H18,CCCCCC(C)C,1213.051052,-51.4818924
3-methylheptane,C8H18,CCCCC(C)CC,1213.600766,-50.788775
4-methylheptane,C8H18,CCCC(C)CCC,1213.74417,-50.669272
methyl heptyl sulfide,C8H18S,CCCCCCCSC,1294.21749,-38.957978
2-methylhexadecane,C17H36,CCCCCCCCCCCCCCC(C)C,2531.4798502000003,-95.48050694
3-methylhexadecane,C17H36,CCCCCCCCCCCCCC(C)CC,2531.45595,-95.48050694
2-methylhexane,C7H16,CCCCC(C)C,1066.707679,-46.5105676
3-methylhexane,C7H16,CCCC(C)CC,1067.496398,-45.7218478
methyl hexyl sulfide,C7H16S,CCCCCCSC,1147.945818,-34.0344544
2-methylindene,C10H10,CC1=CC2=CC=CC=C2C1,1256.932554,27.48569
methyl iodide,CH3I,CI,170.05276899999998,3.2982828
methylisobutylamine,C5H13N,CC(C)CNC,688.9825962,-22.347061
methyl isobutyl ether,C5H120,CC(C)COC,746.8459488000001,-63.4321924
methyl isocyanate,C2H3NO,CN=C=O,237.8587712,-13.80976668
methyl isocyanide,C2H3N,C[N+]#[C-],287.1418084,35.90109126
methyl isopropenyl ketone,C5H8O,CC(=C)C(=O)C,650.574332,-43.02108
methylisopropylamine,C4H11N,CC(C)NC,591.7310548,-18.8336728
methyl isopropyl ether,C4H10O,CC(C)OC,598.590527,-60.229512
methyl isopropyl ketone,C5H10O,CC(C)C(=O)C,688.3850812,-62.7629756
methyl isopropyl sulfide,C4H10S,CC(C)SC,707.4099588,-21.3432358
methyl mercaptan,CH4S,CS,275.1676078,-5.4015356
methyl methacrylate,C5H8O2,CC(=C)C(=O)OC,610.182318,-83.02112416
1-methylnaphthalene,C11H10,CC1=CC=CC2=CC=CC=C12,1340.465151,27.93024116
2-methylnaphthalene,C11H10,CC1=CC2=CC=CC=C2C=C1,1337.334172,27.75098666
methyl nitrate,CH3NO3,CO[N+](=O)[O-],147.65790679999998,-28.7763224
methyl nitrite,CH3NO2,CON=O,161.2812488,-15.2724834
2-methylnonadecane,C20H42,CCCCCCCCCCCCCCCCCC(C)C,2971.2269896000003,-110.2797585
3-methylnonadecane,C20H42,CCCCCCCCCCCCCCCCC(C)CC,2971.203089,-110.2797585
methyl nonadecyl sulfide,C20H42S,CCCCCCCCCCCCCCCCCCCSC,3039.534904,-98.1358636
2-methylnonane,C10H22,CCCCCCCC(C)C,1505.785601,-61.305039
3-methylnonane,C10H22,CCCCCCC(C)CC,1506.215812,-60.8748282
4-methylnonane,C10H22,CCCCCC(C)CCC,1506.287514,-60.70035382
5-methylnonane,C10H22,CCCCC(C)CCCC,1506.430917,-60.70035382
methylnonylamine,C10H23N,CCCCCCCCCNC,1185.899971,-46.90731756
methyl nonyl sulfide,C10H22S,CCCCCCCCCSC,1586.760834,-48.8289258
2-methyloctadecane,C19H40,CCCCCCCCCCCCCCCCC(C)C,2824.620709,-105.3466746
3-methyloctadecane,C19H40,CCCCCCCCCCCCCCCC(C)CC,2824.5968086000003,-105.3466746
methyloctadecylamine,C19H41N,CCCCCCCCCCCCCCCCCCNC,2323.114419,-91.30507212
methyl octadecyl sulfide,C19H40S,CCCCCCCCCCCCCCCCCCSC,2893.334934,-93.1884394
2-methyloctane,C9H20,CCCCCCC(C)C,1359.274923,-56.3815154
3-methyloctane,C9H20,CCCCCC(C)CC,1359.800736,-55.8557022
4-methyloctane,C9H20,CCCCC(C)CCC,1359.490029,-56.2142112
methyloctylamine,C9H21N,CCCCCCCCNC,1086.138866,-41.97423372
methyl octyl sulfide,C9H20S,CCCCCCCCSC,1440.489162,-43.8815016
methyl oleate,C19H36O2,CCCCCCCC/C=C\CCCCCCCC(=O)OC,2662.359536,-149.617756
2-methylpentadecane,C16H34,CCCCCCCCCCCCCC(C)C,2384.945272,-90.5474231
3-methylpentadecane,C16H34,CCCCCCCCCCCCC(C)CC,2384.921371,-90.5474231
2-methylpentanal,C6H12O,CCCC(C)C=O,841.4923248,-61.185536
3-methylpentanal,C6H12O,CCC(C)CC=O,841.9942374,-60.588021
4-methylpentanal,C6H12O,CC(C)CCC=O,841.3967224,-61.185536
2-methylpentane,C6H14,CCCC(C)C,920.4360066,-41.7304476
3-methylpentane,C6H14,CCC(C)CC,920.9618198,-41.109032
2-methylpentanenitrile,C6H11N,CCCC(C)C#N,724.9529991999999,-3.8479966
3-methylpentanenitrile,C6H11N,CCC(C)CC#N,725.0247009999999,-3.4177858
4-methylpentanenitrile,C6H11N,CC(C)CCC#N,724.4032854,-3.8957978
methylpentylamine,C6H15N,CCCCCNC,780.6413971999999,-25.693145
methyl pentyl ether,C6H14O,CCCCCOC,894.360452,-66.7065746
methyl tert-pentyl ether,C6H14O,CCC(C)(C)OC,884.680709,-74.569872
methyl pentyl sulfide,C6H14S,CCCCCSC,1001.865351,-29.3260362
methyl propanoate,C4H8O2,CCC(=O)OC,497.4431878,-102.175065
methyl propyl ether,C4H10O,CCCOC,600.8849845999999,-56.8595274
methyl propyl ketone,C5H10O,CCCC(=O)C,689.2455028,-61.9503552
methyl propyl sulfide,C4H10S,CCCSC,708.8439948,-19.5745914
2-methylpyridine,C6H7N,CC1=CC=CC=N1,647.3238504,23.7093952
3-methylpyridine,C6H7N,CC1=CN=CC=C1,648.6383834000001,25.4302384
4-methylpyridine,C6H7N,CC1=CC=NC=C1,647.347751,24.4025126
2-methylquinoline,C10H9N,CC1=NC2=CC=CC=C2C=C1,916.2534016,42.304062
3-methylquinoline,C10H9N,CC1=CC2=CC=CC=C2N=C1,931.8365928,47.60760514
4-methylquinoline,C10H9N,CC1=CC=NC2=CC=CC=C12,919.814591,47.60760514
5-methylquinoline,C10H9N,CC1=C2C=CC=NC2=CC=C1,919.8384916,47.60760514
6-methylquinoline,C10H9N,CC1=CC2=C(C=C1)N=CC=C2,931.4780838,47.60760514
7-methylquinoline,C10H9N,CC1=CC2=C(C=CC=N2)C=C1,931.3585808,47.60760514
8-methylquinoline,C10H9N,CC1=C2C(=CC=C1)C=CC=N2,919.7667898,47.60760514
methyl salicylate,C8H8O3,COC(=O)C1=CC=CC=C1O,860.1586934000001,-110.9704858
alpha-methylstyrene,C9H10,CC(=C)C1=CC=CC=C1,1154.566284,28.3700122
m-methylstyrene,C9H10,CC1=CC(=CC=C1)C=C,1153.5863596000002,27.605193
p-methylstyrene,C9H10,CC1=CC=C(C=C1)C=C,1153.347354,27.3900876
3-methyl sulfolane,C5H10O2S,CC1CCS(=O)(=O)C1,717.137503,-100.38252
2-methyltetradecane,C15H32,CCCCCCCCCCCCC(C)C,2238.410693,-85.61433926
3-methyltetradecane,C15H32,CCCCCCCCCCCC(C)CC,2238.386792,-85.61433926
methyltetradecylamine,C15H33N,CCCCCCCCCCCCCCNC,1776.388194,-71.57273676
methyl tetradecyl sulfide,C15H32S,CCCCCCCCCCCCCCSC,2318.645007,-73.4704444
2-methyltetrahydrofuran,C5H10O,CC1CCCO1,699.809568,-52.1152583
3-methyltetrahydrofuran,C5H10O,CC1CCOC1,698.5667368000001,-52.1152583
2-methylthiacyclopentane,C5H10S,CC1CCCS1,806.5735481999999,-15.27009334
3-methylthiacyclopentane,C5H10S,CC1CCSC1,807.3383674,-14.38099102
2-methylthiacyclopropane,C3H6S,CC1CS1,530.3782146,11.02056666
2-methylthiophene,C5H6S,CC1=CC=CS1,726.4109358000001,19.957001
3-methylthiophene,C5H6S,CC1=CSC=C1,726.1241286,19.7418956
methyl trichlorosilane,CH3Cl3Si,C[Si](Cl)(Cl)Cl,247.849222,-136.6636308
2-methyltridecane,C14H30,CCCCCCCCCCCC(C)C,2091.900015,-80.68125542
3-methyltridecane,C14H30,CCCCCCCCCCC(C)CC,2091.876114,-80.68125542
methyltridecylamine,C14H31N,CCCCCCCCCCCCCNC,1642.401431,-66.63965292
2-methylundecane,C12H26,CCCCCCCCCC(C)C,1798.591852,-71.1759868
3-methylundecane,C12H26,CCCCCCCCC(C)CC,1799.141566,-70.626273
4-methylundecane,C12H26,CCCCCCCC(C)CCC,1799.213267,-70.5784718
5-methylundecane,C12H26,CCCCCCC(C)CCCC,1799.284969,-70.5784718
6-methylundecane,C12H26,CCCCCC(C)CCCCC,1799.284969,-70.5784718
methyl undecyl sulfide,C12H26S,CCCCCCCCCCCSC,1879.423681,-58.675973
methyl vinyl ether,C3H6O,COC=C,429.7088874,-25.812648
monoethanolamine,C2H7NO,C(CO)N,306.07108359999995,-50.23667114
morpholine,C4H9NO,C1COCCN1,519.1449326,-37.284936
naphthalene,C10H8,C1=CC=C2C=CC=CC2=C1,1192.735542,35.994303599999995
neopentane,C5H12,CC(C)(C)C,776.8651024,-40.1291074
neopentyl acetate,C7H14O2,CC(=O)OCC(C)(C)C,929.6616382,-124.8567344
neopentyl glycol,C5H12O2,CC(C)(CO)CO,694.2168276,-106.835682
"1-nitro-2,2-dimethylbutane",C6H13NO2,CCC(C)(C)C[N+](=O)[O-],715.1776538,-44.61764008
"1-nitro-2,2-dimethylpropane",C5H11NO2,CC(C)(C)C[N+](=O)[O-],619.8859616,-39.68455624
"1-nitro-2,3-dimethylbutane",C6H13NO2,CC(C)C(C)C[N+](=O)[O-],717.6394156,-45.05024094
1-nitro-2-methylbutane,C5H11NO2,CCC(C)C[N+](=O)[O-],620.818085,-38.85520542
2-nitro-2-methylbutane,C5H11NO2,CCC(C)(C)[N+](=O)[O-],617.9739136,-41.8499506
1-nitro-2-methylpropane,C4H9NO2,CC(C)C[N+](=O)[O-],522.347613,-33.92212158
2-nitro-2-methylpropane,C4H9NO2,CC(C)(C)[N+](=O)[O-],512.548367,-41.8499506
1-nitro-3-methylbutane,C5H11NO2,CC(C)CC[N+](=O)[O-],617.113492,-38.85520542
m-nitroaniline,C6H6N2O2,C1=CC(=CC(=C1)[N+](=O)[O-])N,464.747167,13.981851
p-nitroaniline,C6H6N2O2,C1=CC(=CC=C1N)[N+](=O)[O-],464.0062484,14.220857
nitrobenzene,C6H5NO2,C1=CC=C(C=C1)[N+](=O)[O-],582.218616,16.1568056
3-nitrobenzotrifluoride,C7H4F3NO2,C1=CC(=CC(=C1)[N+](=O)[O-])C(F)(F)F,431.7165378,-143.881612
1-nitrobutane,C4H9NO2,CCCC[N+](=O)[O-],521.7022968,-34.3929634
2-nitrobutane,C4H9NO2,CCC(C)[N+](=O)[O-],517.3762882,-39.1013816
1-nitrodecane,C10H21NO2,CCCCCCCCCC[N+](=O)[O-],1127.678109,-62.25867294
1-nitrododecane,C12H25NO2,CCCCCCCCCCCC[N+](=O)[O-],1350.79021,-72.12484062
nitroethane,C2H5NO2,CC[N+](=O)[O-],279.6131194,-24.378612
1-nitroheptadecane,C17H35NO2,CCCCCCCCCCCCCCCCC[N+](=O)[O-],1978.372165,-96.79025982
1-nitroheptane,C7H15NO2,CCCCCCC[N+](=O)[O-],811.8794814,-47.45942142
1-nitrohexadecane,C16H33NO2,CCCCCCCCCCCCCCCC[N+](=O)[O-],1841.13492,-91.85717598
1-nitrohexane,C6H13NO2,CCCCCC[N+](=O)[O-],716.1336778,-42.52633758
2-nitrohexane,C6H13NO2,CCCCC(C)[N+](=O)[O-],720.125078,-43.78828926
nitromethane,CH3NO2,C[N+](=O)[O-],150.454277,-17.8537482
1-nitrononadecane,C19H39NO2,CCCCCCCCCCCCCCCCCCC[N+](=O)[O-],2251.340918,-106.6564275
1-nitrononane,C9H19NO2,CCCCCCCCC[N+](=O)[O-],1024.451418,-54.7084734
1-nitrooctadecane,C18H37NO2,CCCCCCCCCCCCCCCCCC[N+](=O)[O-],2114.4143802000003,-101.7233437
1-nitrooctane,C8H17NO2,CCCCCCCC[N+](=O)[O-],921.3920306,-52.39250526
1-nitropentane,C5H11NO2,CCCCC[N+](=O)[O-],621.9653138,-37.59325374
2-nitropentane,C5H11NO2,CCCC(C)[N+](=O)[O-],621.296097,-38.85520542
3-nitropentane,C5H11NO2,CCC(CC)[N+](=O)[O-],621.176594,-38.85520542
1-nitropropane,C3H7NO2,CCC[N+](=O)[O-],406.4775042,-29.995253
2-nitropropane,C3H7NO2,CC(C)[N+](=O)[O-],403.561631,-33.221834
1-nitrotetradecane,C14H29NO2,CCCCCCCCCCCCCC[N+](=O)[O-],1570.412824,-81.9910083
m-nitrotoluene,C7H7NO2,CC1=CC(=CC=C1)[N+](=O)[O-],663.9825685999999,4.9713248
p-nitrotoluene,C7H7NO2,CC1=CC=C(C=C1)[N+](=O)[O-],661.8793158000001,7.409186
1-nitrotridecane,C13H27NO2,CCCCCCCCCCCCC[N+](=O)[O-],1441.61249,-77.05792446
1-nitroundecane,C11H23NO2,CCCCCCCCCCC[N+](=O)[O-],1234.8484,-67.19175678
nonacosane,C29H60,CCCCCCCCCCCCCCCCCCCCCCCCCCCCC,4276.462656,-153.4155613
1-nonacosene,C29H58,CCCCCCCCCCCCCCCCCCCCCCCCCCCC=C,4247.853638,-123.4370388
nonacosylbenzene,C35H64,CCCCCCCCCCCCCCCCCCCCCCCCCCCCCC1=CC=CC=C1,4978.662284,-126.4819752
nonacosylcyclopentane,C34H68,CCCCCCCCCCCCCCCCCCCCCCCCCCCCCC1CCCC1,4963.796111,-163.6258977
1-nonacosyne,C29H56,CCCCCCCCCCCCCCCCCCCCCCCCCCCC#C,4228.900462,-83.64970994
nonadecanal,C19H38O,CCCCCCCCCCCCCCCCCCC=O,2731.83858,-123.9724122
nonadecane,C19H40,CCCCCCCCCCCCCCCCCCC,2814.247849,-104.1564247
"1,2-nonadecanediol",C19H40O2,CCCCCCCCCCCCCCCCCC(CO)O,2764.654104,-178.1144414
nonadecanenitrile,C19H37N,CCCCCCCCCCCCCCCCCCC#N,2239.366717,-64.67741366
1-nonadecanethiol,C19H40S,CCCCCCCCCCCCCCCCCCCS,2889.271832,-95.0287856
1-nonadecanethiol,C19H40S,CCCCCCCCCCCCCCCCCCCS,2889.869347,-95.0287856
nonadecanoic acid,C19H38O2,CCCCCCCCCCCCCCCCCCC(=O)O,2667.832773,-187.61971
1-nonadecanol,C19H40O,CCCCCCCCCCCCCCCCCCCO,2774.47725,-139.699007
2-nonadecanol,C19H40O,CCCCCCCCCCCCCCCCCC(C)O,2776.700006,-141.730558
2-nonadecanone,C19H38O,CCCCCCCCCCCCCCCCCC(=O)C,2726.102436,-131.214294
nonadecyl acetate,C21H42O2,CCCCCCCCCCCCCCCCCCCOC(=O)C,2969.410544,-190.1531736
nonadecylamine,C19H41N,CCCCCCCCCCCCCCCCCCCN,2315.657432,-95.8892072
nonadecylbenzene,C25H44,CCCCCCCCCCCCCCCCCCCC1=CC=CC=C1,3517.690308,-77.1511368
nonadecyl butanoate,C23H46O2,CCCCCCCCCCCCCCCCCCCOC(=O)CCC,3261.165168,-199.7612148
nonadecylcyclohexane,C25H50,CCCCCCCCCCCCCCCCCCCC1CCCCC1,3645.510717,-120.7004201
nonadecylcyclopentane,C24H48,CCCCCCCCCCCCCCCCCCCC1CCCC1,3502.967538,-114.2950593
nonadecyl formate,C20H40O2,CCCCCCCCCCCCCCCCCCCOC=O,2832.053796,-176.4581298
nonadecyl propanoate,C22H44O2,CCCCCCCCCCCCCCCCCCCOC(=O)CC,3115.801719,-194.431381
1-nonadecyne,C19H36,CCCCCCCCCCCCCCCCCC#C,2767.330971,-34.65587
2-nonadecyne,C19H36,CCCCCCCCCCCCCCCCC#CC,2763.602477,-39.00338914
3-nonadecyne,C19H36,CCCCCCCCCCCCCCCC#CCC,2763.865384,-39.00338914
1-nonanal,C9H18O,CCCCCCCCC=O,1281.693576,-74.3069654
nonane,C9H20,CCCCCCCCC,1360.73286,-54.73954418
"1,2-nonanediol",C9H20O2,CCCCCCCC(CO)O,1280.355142,-128.783603
"1,3-nonanediol",C9H20O2,CCCCCCC(CCO)O,1280.0444341999998,-128.783603
"1,4-nonanediol",C9H20O2,CCCCC[C@H](CCCO)O,1279.423019,-128.783603
"1,9-nonanediol",C9H20O2,C(CCCCO)CCCCO,1296.846556,-127.5216513
nonanenitrile,C9H17N,CCCCCCCCC#N,1026.267863,-15.34657526
2-nonanethiol,C9H20S,CCCCCCCC(C)S,1437.3103821999998,-47.7533988
nonanoic acid,C9H18O2,CCCCCCCCC(=O)O,1214.628492,-138.145468
1-nonanol,C9H20O,CCCCCCCCCO,1321.631478,-90.463771
2-nonanol,C9H20O,CCCCCCCC(C)O,1316.899159,-95.124388
3-nonanol,C9H20O,CCCCCCC(CC)O,1320.6515536000002,-92.3997196
4-nonanol,C9H20O,CCCCCC(CCC)O,1320.699355,-92.3997196
5-nonanol,C9H20O,CCCCC(CCCC)O,1320.6515536000002,-92.3997196
2-nonanone,C9H18O,CCCCCCCC(=O)C,1274.834103,-81.4532448
nonatriacontane,C39H80,CCCCCCCCCCCCCCCCCCCCCCCCCCCCCCCCCCCCCCC,5736.383006,-202.7463997
1-nonatriacontene,C39H78,CCCCCCCCCCCCCCCCCCCCCCCCCCCCCCCCCCCCCC=C,5708.897316,-172.7678772
1-nonatriacontyne,C39H76,CCCCCCCCCCCCCCCCCCCCCCCCCCCCCCCCCCCCCC#C,5689.968041,-132.9805483
1-nonene,C9H18,CCCCCCCC=C,1332.86476,-24.856624
nonyl acetate,C11H22O2,CCCCCCCCCOC(=O)C,1518.405118,-140.6789316
nonylamine,C9H21N,CCCCCCCCCN,1080.976337,-46.6539712
nonylbenzene,C15H24,CCCCCCCCCC1=CC=CC=C1,2063.984114,-27.9159008
nonyl butanoate,C13H26O2,CCCCCCCCCOC(=O)CCC,1812.310796,-150.3108734
nonylcyclohexane,C15H30,CCCCCCCCCC1CCCCC1,2190.203183,-75.7888026
nonylcyclopentane,C14H28,CCCCCCCCCC1CCCC1,2049.572052,-64.9140296
1-nonylcyclopentene,C14H26,CCCCCCCCCC1=CCCC1,2017.401845,-39.4598906
nonyl formate,C10H20O2,CCCCCCCCCOC=O,1381.143972,-126.9838878
nonyl mercaptan,C9H20S,CCCCCCCCCS,1438.983424,-45.6023448
1-nonylnaphthalene,C19H26,CCCCCCCCCC1=CC=CC2=CC=CC=C21,2512.909084,-11.352785
2-nonylnaphthalene,C19H26,CCCCCCCCCC1=CC2=CC=CC=C2C=C1,2510.447322,-13.98902118
nonyl propanoate,C12H24O2,CCCCCCCCCOC(=O)CC,1665.87182,-144.9810396
1-nonyne,C9H16,CCCCCCCC#C,1314.652503,14.7466702
2-nonyne,C9H16,CCCCCCC#CC,1310.087488,10.32744926
3-nonyne,C9H16,CCCCCC#CCC,1310.206991,10.32744926
2-norbornene,C7H10,C1CC2CC1C=C2,960.7802194,21.51054
o-chloroaniline,C6H6ClN,C1=CC=C(C(=C1)N)Cl,607.7205561999999,13.6950438
o-chlorobenzoic acid,C7H5ClO2,C1=CC=C(C(=C1)C(=O)O)Cl,705.5935132,-77.67695
o-chloronitrobenzene,C6H4ClNO2,C1=CC=C(C(=C1)[N+](=O)[O-])Cl,558.8677298,8.891023200000001
o-chlorophenol,C6H5ClO,C1=CC=C(C(=C1)O)Cl,669.7904144,-29.397738
o-chlorotoluene,C7H7Cl,CC1=CC=CC=C1Cl,855.8087842,4.3499092
o-cresol,C7H8O,CC1=CC=CC=C1O,844.0735896,-30.7361716
o-cymene,C10H14,CC1=CC=CC=C1C(C)C,1329.303571,-6.3097584
o-dichlorobenzene,C6H4Cl2,C1=CC=C(C(=C1)Cl)Cl,677.4386064,7.0984782
o-diethylbenzene,C10H14,CCC1=CC=CC=C1CC,1331.64583,-3.75956438
o-difluorobenzene,C6H4F2,C1=CC=C(C(=C1)F)F,601.7932074,-70.387267
o-dinitrobenzene,C6H4N2O4,C1=CC=C(C(=C1)[N+](=O)[O-])[N+](=O)[O-],403.8723388,6.6443668
o-ethylaniline,C8H11N,CCC1=CC=CC=C1N,832.6013015999999,9.201731
o-ethylphenol,C8H10O,CCC1=CC=CC=C1O,995.9619026,-34.71084138
o-ethylstyrene,C10H12,CCC1=CC=CC=C1C=C,1301.650577,24.08224456
o-ethyltoluene,C9H12,CCC1=CC=CC=C1C,1184.394233,0.3107078
o-methylstyrene,C9H10,CC1=CC=CC=C1C=C,1154.112173,28.2983104
o-nitroaniline,C6H6N2O2,C1=CC=C(C(=C1)N)[N+](=O)[O-],468.093251,15.2485828
o-nitroanisole,C7H7NO3,COC1=CC=CC=C1[N+](=O)[O-],636.0666678,-20.196007
o-nitrotoluene,C7H7NO2,CC1=CC=CC=C1[N+](=O)[O-],669.6470108000001,10.874773
o-phenylenediamine,C6H8N2,C1=CC=C(C(=C1)N)N,528.2749618,21.7973472
o-terphenyl,C18H14,C1=CC=C(C=C1)C2=CC=CC=C2C3=CC=CC=C3,2145.509061,66.204662
o-toluic acid,C8H8O2,CC1=CC=CC=C1C(=O)O,888.026793,-77.1511368
o-toluidine,C7H9N,CC1=CC=CC=C1N,727.6298664,13.862348
o-xylene,C8H10,CC1=CC=CC=C1C,1037.070935,4.5650146000000005
octacosane,C28H58,CCCCCCCCCCCCCCCCCCCCCCCCCCCC,4130.119282,-148.4824775
1-octacosene,C28H56,CCCCCCCCCCCCCCCCCCCCCCCCCCC=C,4101.797071,-118.5039549
octacosylbenzene,C34H62,CCCCCCCCCCCCCCCCCCCCCCCCCCCCC1=CC=CC=C1,4832.534016,-121.5488914
octacosylcyclohexane,C34H68,CCCCCCCCCCCCCCCCCCCCCCCCCCCCC1CCCCC1,4959.183295,-165.0981746
octacosylcyclopentane,C33H66,CCCCCCCCCCCCCCCCCCCCCCCCCCCCC1CCCC1,4817.667843,-158.6928138
1-octacosyne,C28H54,CCCCCCCCCCCCCCCCCCCCCCCCCCC#C,4082.819995,-78.7166261
octadecanal,C18H36O,CCCCCCCCCCCCCCCCCC=O,2586.116622,-119.024988
octadecane,C18H38,CCCCCCCCCCCCCCCCCC,2664.343286,-99.21617072
"1,2-octadecanediol",C18H38O2,CCCCCCCCCCCCCCCCC(CO)O,2617.737116,-173.1813575
"1,3-octadecanediol",C18H38O2,CCCCCCCCCCCCCCCC(CCO)O,2617.737116,-173.1813575
"1,18-octadecanediol",C18H38O2,C(CCCCCCCCCO)CCCCCCCCO,2619.003847,-171.9194059
octadecanenitrile,C18H35N,CCCCCCCCCCCCCCCCCC#N,2102.559683,-59.74432982
1-octadecanethiol,C18H38S,CCCCCCCCCCCCCCCCCCS,2743.286967,-90.105262
octadecanoic acid,C18H36O2,CCCCCCCCCCCCCCCCCC(=O)O,2520.198767,-182.600584
1-octadecanol,C18H38O,CCCCCCCCCCCCCCCCCCO,2630.547837,-134.7515828
2-octadecanol,C18H38O,CCCCCCCCCCCCCCCCC(C)O,2630.715141,-136.7974742
2-octadecanone,C18H36O,CCCCCCCCCCCCCCCCC(=O)C,2580.260975,-126.2668698
1-octadecene,C18H36,CCCCCCCCCCCCCCCCC=C,2650.528739,-69.31174
octadecyl acetate,C20H40O2,CCCCCCCCCCCCCCCCCCOC(=O)C,2823.688586,-185.2057494
octadecylamine,C18H39N,CCCCCCCCCCCCCCCCCCN,2178.515789,-90.9656836
octadecylbenzene,C24H42,CCCCCCCCCCCCCCCCCCC1=CC=CC=C1,3371.633741,-72.21805296
octadecyl butanoate,C22H44O2,CCCCCCCCCCCCCCCCCCOC(=O)CCC,3115.419309,-194.8137906
octadecylcyclohexane,C24H48,CCCCCCCCCCCCCCCCCCC1CCCCC1,3499.573653,-115.7673362
octadecyl formate,C19H38O2,CCCCCCCCCCCCCCCCCCOC=O,2686.307937,-171.5107056
octadecyl propanoate,C21H42O2,CCCCCCCCCCCCCCCCCCOC(=O)CC,2970.05586,-189.5078574
1-octadecyne,C18H34,CCCCCCCCCCCCCCCCC#C,2621.370007,-29.7323464
2-octadecyne,C18H34,CCCCCCCCCCCCCCCC#CC,2617.641513,-34.0703053
3-octadecyne,C18H34,CCCCCCCCCCCCCCC#CCC,2628.755292,-34.0703053
octafluoro-2-butene,C4F8,C(=C(/C(F)(F)F)\F)(\C(F)(F)F)/F,-18.164456,-394.3599
octafluorocyclobutane,C4F8,C1(C(C(C1(F)F)(F)F)(F)F)(F)F,10.994276,-365.201168
octafluoropropane,C3F8,C(C(F)(F)F)(C(F)(F)F)(F)F,-124.9284362,-407.0750192
octamethylcyclotetrasiloxane,C8H24O4Si4,C[Si]1(O[Si](O[Si](O[Si](O1)(C)C)(C)C)(C)C)C,-396.9172642,-504.30266
1-octanal,C8H16O,CCCCCCCC=O,1135.350202,-69.3595412
octane,C8H18,CCCCCCCC,1214.293884,-49.9044528
"1,2-octanediol",C8H18O2,CCCCCCC(CO)O,1148.662836,-123.8505191
"1,3-octanediol",C8H18O2,CCCCCC(CCO)O,1133.557657,-123.8505191
"1,4-octanediol",C8H18O2,CCCCC(CCCO)O,1132.960142,-123.8505191
"1,8-octanediol",C8H18O2,C(CCCCO)CCCO,1149.929568,-122.5885675
octanenitrile,C8H15N,CCCCCCCC#N,923.9732954,-10.41349142
2-octanethiol,C8H18S,CCCCCCC(C)S,1290.990909,-42.8059746
octanoic acid,C8H16O2,CCCCCCCC(=O)O,1068.380721,-132.887336
1-octanol,C8H18O,CCCCCCCCO,1175.407607,-85.325142
2-octanol,C8H18O,CCCCCCC(C)O,1171.51181,-89.8901566
3-octanol,C8H18O,CCCCCC(CC)O,1174.30818,-87.46663576
4-octanol,C8H18O,CCCCC(CCC)O,1174.260379,-87.46663576
2-octanone,C8H16O,CCCCCCC(=O)C,1127.271799,-76.8643296
octatriacontane,C38H78,CCCCCCCCCCCCCCCCCCCCCCCCCCCCCCCCCCCCCC,5590.254737599999,-197.8133159
1-octatriacontene,C38H76,CCCCCCCCCCCCCCCCCCCCCCCCCCCCCCCCCCCCC=C,5562.769048,-167.8347933
1-octatriacontyne,C38H74,CCCCCCCCCCCCCCCCCCCCCCCCCCCCCCCCCCCCC#C,5543.815872,-128.0474645
1-octene,C8H16,CCCCCCC=C,1186.521386,-19.9809016
cis-2-octene,C8H16,CCCCC/C=C\C,1185.111251,-21.391037
trans-2-octene,C8H16,CCCCC/C=C/C,1184.083525,-22.586067
cis-3-octene,C8H16,CCCC/C=C\CC,1185.159052,-21.391037
trans-3-octene,C8H16,CCCC/C=C/CC,1184.083525,-22.586067
cis-4-octene,C8H16,CCC/C=C\CCC,1185.159052,-21.391037
trans-4-octene,C8H16,CCC/C=C/CCC,1184.083525,-22.586067
octyl acetate,C10H20O2,CCCCCCCCOC(=O)C,1372.372452,-135.7315074
octylamine,C8H19N,CCCCCCCCN,975.5985914,-41.7304476
octylbenzene,C14H22,CCCCCCCCC1=CC=CC=C1,1917.736343,-22.9684766
octyl butanoate,C12H24O2,CCCCCCCCOC(=O)CCC,1665.87182,-145.3395486
octylcyclohexane,C14H28,CCCCCCCCC1CCCCC1,2043.740306,-70.8413784
octylcyclopentane,C13H26,CCCCCCCCC1CCCC1,1903.085275,-59.990506
octyl formate,C9H18O2,CCCCCCCCOC=O,1233.964077,-122.0364636
octyl mercaptan,C8H18S,CCCCCCCCS,1292.6400503999998,-40.6549206
tert-octyl mercaptan,C8H18S,CC(C)(C)CC(C)(C)S,1285.923982,-48.99623