Name,Formula,SMILES,Enthalpy_combustion (kcal/mol),Enthalpy_formation (kcal/mol)
"2,2-dimethylpropanoic acid",C5H10O2,CC(C)(C)C(=O)O,629.3027979999999,-117.351946
"1,2-dimethylpropyl acetate",C7H14O2,CC(C)C(C)OC(=O)C,928.7534154,-125.6215536
"1,1-dimethylpropylamine",C5H13N,CCC(C)(C)N,684.9194941999999,-26.9359762
"1,2-dimethylpropylamine",C5H13N,CC(C)C(C)N,684.6087864,-26.9359762
"2,2-dimethylpropylamine",C5H13N,CC(C)(C)CN,684.6804881999999,-26.9359762
"2,2-dimethylpropyl formate",C6H12O2,CC(C)(C)COC=O,791.826878,-111.13779
"2,2-dimethylpropyl propanoate",C8H16O2,CCC(=O)OCC(C)(C)C,1075.622602,-129.1588424
"2,3-dimethylpyridine",C7H9N,CC1=C(N=CC=C1)C,731.4061611999999,16.3241098
"2,4-dimethylpyridine",C7H9N,CC1=CC(=NC=C1)C,730.3067335999999,15.2724834
"2,5-dimethylpyridine",C7H9N,CC1=CN=C(C=C1)C,730.760845,15.869998400000002
"2,6-dimethylpyridine",C7H9N,CC1=NC(=CC=C1)C,728.848797,14.0296522
"3,4-dimethylpyridine",C7H9N,CC1=C(C=NC=C1)C,730.9520498,16.73042
"3,5-dimethylpyridine",C7H9N,CC1=CC(=CN=C1)C,731.6690678,17.3996368
"2,3-dimethylquinoline",C11H11N,CC1=CC2=CC=CC=C2N=C1C,1029.518345,39.93312248
"2,4-dimethylquinoline",C11H11N,CC1=CC(=NC2=CC=CC=C12)C,1017.424641,39.93312248
"2,6-dimethylquinoline",C11H11N,CC1=CC2=C(C=C1)N=C(C=C2)C,1029.279339,39.93312248
"2,7-dimethylquinoline",C11H11N,CC1=CC2=C(C=C1)C=CC(=N2)C,1029.159836,39.93312248
"2,8-dimethylquinoline",C11H11N,CC1=C2C(=CC=C1)C=CC(=N2)C,1029.040333,39.93312248
"3,4-dimethylquinoline",C11H11N,CC1=C(C2=CC=CC=C2N=C1)C,1028.92083,39.93312248
"3,6-dimethylquinoline",C11H11N,CC1=CC2=C(C=C1)N=CC(=C2)C,1028.801327,39.93312248
"3,7-dimethylquinoline",C11H11N,CC1=CC2=C(C=C1)C=C(C=N2)C,1028.681824,39.93312248
"3,8-dimethylquinoline",C11H11N,CC1=C2C(=CC=C1)C=C(C=N2)C,1028.562321,39.93312248
"4,5-dimethylquinoline",C11H11N,CC1=C2C(=CC=NC2=CC=C1)C,1028.442818,39.93312248
"4,6-dimethylquinoline",C11H11N,CC1=CC2=C(C=CN=C2C=C1)C,1016.229611,39.93312248
"4,8-dimethylquinoline",C11H11N,CC1=C2C(=CC=C1)C(=CC=N2)C,1028.203812,39.93312248
"5,6-dimethylquinoline",C11H11N,CC1=C(C2=C(C=C1)N=CC=C2)C,1028.084309,39.93312248
"5,7-dimethylquinoline",C11H11N,CC1=CC(=C2C=CC=NC2=C1)C,1015.823301,39.93312248
"6,7-dimethylquinoline",C11H11N,CC1=CC2=C(C=C1C)N=CC=C2,1027.845303,39.93312248
"2,3-dimethylstyrene",C10H12,CC1=C(C(=CC=C1)C=C)C,1298.806405,21.34084574
"3,4-dimethylstyrene",C10H12,CC1=C(C=C(C=C1)C=C)C,1298.806405,21.34084574
"2,6-dimethylstyrene",C10H12,CC1=C(C(=CC=C1)C)C=C,1298.806405,21.34084574
"2,4-dimethylstyrene",C10H12,CC1=CC(=C(C=C1)C=C)C,1298.806405,21.34084574
"3,5-dimethylstyrene",C10H12,CC1=CC(=CC(=C1)C=C)C,1298.806405,21.34084574
"2,5-dimethylstyrene",C10H12,CC1=CC(=C(C=C1)C)C=C,1298.806405,21.34084574
dimethyl sulfate,C2H6O4S,COS(=O)(=O)OC,258.12648,-164.316625
dimethyl sulfide,C2H6S,CSC,417.0893706,-8.8910232
dimethyl sulfoxide,C2H6OS,CS(=O)C,372.2040438,-49.99049496
dimethyl terephthalate,C10H10O4,COC(=O)C1=CC=C(C=C1)C(=O)OC,1056.932333,-152.246822
"2,3-dimethyltetradecane",C16H34,CCCCCCCCCCCC(C)C(C)C,2383.67854,-91.80937478
"2,4-dimethyltetradecane",C16H34,CCCCCCCCCCC(C)CC(C)C,2384.037049,-91.80937478
dimethyltetradecylamine,C16H35N,CCCCCCCCCCCCCCN(C)C,1926.101553,-73.14539624
"2,2-dimethyltetrahydrofuran",C6H12O,CC1(CCCO1)C,850.1443419999999,-53.4058907
"2,3-dimethyltetrahydrofuran",C6H12O,CC1CCOC1C,841.5640265999999,-61.90972418
"2,4-dimethyltetrahydrofuran",C6H12O,CC1CC(OC1)C,841.540126,-61.90972418
"2,5-dimethyltetrahydrofuran",C6H12O,CC1CCC(O1)C,841.659629,-61.90972418
"3,3-dimethyltetrahydrofuran",C6H12O,CC1(CCOC1)C,850.0009384,-53.4058907
"3,4-dimethyltetrahydrofuran",C6H12O,CC1COCC1C,841.3250206,-61.90972418
"2,3-dimethylthiophene",C6H8S,CC1=C(SC=C1)C,870.5076531999999,12.7629204
"2,4-dimethylthiophene",C6H8S,CC1=CC(=CS1)C,869.9579394,12.189306
"2,5-dimethylthiophene",C6H8S,CC1=CC=C(S1)C,870.3164484,12.4522126
"3,4-dimethylthiophene",C6H8S,CC1=CSC=C1C,870.1730448000001,12.5000138
"2,3-dimethyltridecane",C15H32,CCCCCCCCCCC(C)C(C)C,2237.143961,-86.87629094
"2,4-dimethyltridecane",C15H32,CCCCCCCCCC(C)CC(C)C,2237.47857,-86.87629094
"2,2-dimethylundecane",C13H28,CCCCCCCCCC(C)(C)C,1944.791822,-76.5775224
"2,3-dimethylundecane",C13H28,CCCCCCCCC(C)C(C)C,1944.194307,-77.01012326
"2,4-dimethylundecane",C13H28,CCCCCCCC(C)CC(C)C,1944.457214,-77.01012326
m-dinitrobenzene,C6H4N2O4,C1=CC(=CC(=C1)[N+](=O)[O-])[N+](=O)[O-],412.1419464,12.8585228
p-dinitrobenzene,C6H4N2O4,C1=CC(=CC=C1[N+](=O)[O-])[N+](=O)[O-],408.3895522,12.1415048
"2,4-dinitrotoluene",C7H6N2O4,CC1=C(C=C(C=C1)[N+](=O)[O-])[N+](=O)[O-],418.140997,-15.3441852
"2,5-dinitrotoluene",C7H6N2O4,CC1=C(C=CC(=C1)[N+](=O)[O-])[N+](=O)[O-],445.9612954,-8.126204
"2,6-dinitrotoluene",C7H6N2O4,CC1=C(C=CC=C1[N+](=O)[O-])[N+](=O)[O-],421.5109816,-12.2132066
"3,4-dinitrotoluene",C7H6N2O4,CC1=CC(=C(C=C1)[N+](=O)[O-])[N+](=O)[O-],429.971794,-3.346084
"3,5-dinitrotoluene",C7H6N2O4,CC1=CC(=CC(=C1)[N+](=O)[O-])[N+](=O)[O-],443.0932234,-10.277258
dinonylamine,C18H39N,CCCCCCCCCNCCCCCCCCC,2209.897277,-86.37198828
dinonyl ether,C18H38O,CCCCCCCCCOCCCCCCCCC,2638.984749,-128.9198364
dinonyl sulfide,C18H38S,CCCCCCCCCSCCCCCCCCC,2746.250642,-89.24962052
dioctadecylamine,C36H75N,CCCCCCCCCCCCCCCCCCNCCCCCCCCCCCCCCCCCC,4753.303526799999,-175.1674974
dioctylamine,C16H35N,CCCCCCCCNCCCCCCCC,1922.994475,-76.5058206
dioctyl disulfide,C16H34S2,CCCCCCCCSSCCCCCCCC,2536.23607,-77.67695
dioctyl ether,C16H34O,CCCCCCCCOCCCCCCCC,2354.639311,-119.0488886
dioctyl phthalate,C24H38O4,CCCCCCCCOC(=O)C1=CC=CC=C1C(=O)OCCCCCCCC,3108.368632,-231.0518803
dioctyl sulfide,C16H34S,CCCCCCCCSCCCCCCCC,2464.15186,-79.39062302
"1,4-dioxane",C4H8O2,C1COCCO1,523.8533508,-75.30123036
dipentylamine,C10H23N,CCCCCNCCCCC,1185.780468,-46.90731756
dipentyl disulfide,C10H22S2,CCCCCSSCCCCC,1657.602212,-48.279212
dipentyl sulfide,C10H22S,CCCCCSCCCCC,1585.757009,-49.83992118
diphenylacetylene,C14H10,C1=CC=C(C=C1)C#CC2=CC=CC=C2,1691.158655,102.8012607
diphenylamine,C12H11N,C1=CC=C(C=C1)NC2=CC=CC=C2,1078.753581,48.279212
"1,1-diphenylbutane",C16H18,CCCC(C1=CC=CC=C1)C2=CC=CC=C2,2035.327295,22.227558
"1,1-diphenyldodecane",C24H34,CCCCCCCCCCCC(C1=CC=CC=C1)C2=CC=CC=C2,3201.772177,-23.661594
"1,1-diphenylethane",C14H14,CC(C1=CC=CC=C1)C2=CC=CC=C2,1742.975156,33.785888160000006
"1,2-diphenylethane",C14H14,C1=CC=C(C=C1)CCC2=CC=CC=C2,1737.693123,34.14917728
diphenyl ether,C12H10O,C1=CC=C(C=C1)OC2=CC=CC=C2,1412.812267,10.5879658
"1,1-diphenylheptane",C19H24,CCCCCCC(C1=CC=CC=C1)C2=CC=CC=C2,2472.469269,5.019126
"1,1-diphenylhexadecane",C28H42,CCCCCCCCCCCCCCCC(C1=CC=CC=C1)C2=CC=CC=C2,3772.805312,-46.60617
"1,1-diphenylhexane",C18H22,CCCCCC(C1=CC=CC=C1)C2=CC=CC=C2,2326.675609,10.75527
diphenylmethane,C13H12,C1=CC=C(C=C1)CC2=CC=CC=C2,1592.329674,39.33560748
"diphenylmethane-4,4'-diisocyanate",C15H10N2O2,C1=CC(=CC=C1CC2=CC=C(C=C2)N=C=O)N=C=O,719.3363582,-13.3365348
"1,1-diphenyloctane",C20H26,CCCCCCCC(C1=CC=CC=C1)C2=CC=CC=C2,2618.31073,-0.717018
"1,1-diphenylpentane",C17H20,CCCCC(C1=CC=CC=C1)C2=CC=CC=C2,2180.881949,16.491414
"1,1-diphenylpropane",C15H16,CCC(C1=CC=CC=C1)C2=CC=CC=C2,1889.246828,27.963702
"1,2-diphenylpropane",C15H16,CC(CC1=CC=CC=C1)C2=CC=CC=C2,1889.222927,27.963702
"1,3-diphenylpropane",C15H16,C1=CC=C(C=C1)CCCC2=CC=CC=C2,1890.489659,29.5650422
"2,2-diphenylpropane",C15H16,CC(C)(C1=CC=CC=C1)C2=CC=CC=C2,1882.028846,24.3547114
"1,1-diphenyltetradecane",C26H38,CCCCCCCCCCCCCC(C1=CC=CC=C1)C2=CC=CC=C2,3493.5985032000003,-35.133882
"1,3-diphenyltriazene",C12H11N3,C1=CC=C(C=C1)NN=NC2=CC=CC=C2,329.708777,79.25438960000001
dipropyl disulfide,C6H14S2,CCCSSCCC,1072.587226,-28.1071056
dipropyl ether,C6H14O,CCCOCCC,891.0860698,-70.0526586
dipropyl sulfide,C6H14S,CCCSCCC,1001.100532,-29.9235512
dipropyl sulfone,C6H14O2S,CCCS(=O)(=O)CCC,927.8451926,-111.9265098
ditetradecylamine,C28H59N,CCCCCCCCCCCCCCNCCCCCCCCCCCCCC,3603.326158,-135.7028267
ditridecylamine,C26H55N,CCCCCCCCCCCCCNCCCCCCCCCCCCC,3316.805765,-125.836659
diundecylamine,C22H47N,CCCCCCCCCCCNCCCCCCCCCCC,2744.2907926000003,-106.1043236
m-divinylbenzene,C10H10,C=CC1=CC(=CC=C1)C=C,1270.101785,50.669272
divinyl ether,C4H6O,C=COC=C,539.8189516,-3.346084
"dl-2,3-butanediol",C4H10O2,CC(C(C)O)O,538.7912258,-114.005862
"dl-2,3-dibromobutane",C4H8Br2,CC(C(C)Br)Br,570.4834214,-20.02631274
"dl-2,3-dichlorobutane",C4H8Cl2,C[C@H]([C@@H](C)Cl)Cl,559.1784375999999,-40.13627758
"dl-2,4-pentanediol",C5H12O2,CC(CC(C)O)O,702.5103358,-114.483874
docosane,C22H46,CCCCCCCCCCCCCCCCCCCCCC,3254.186193,-118.8839745
1-docosene,C22H44,CCCCCCCCCCCCCCCCCCCCC=C,3225.553274,-88.90545188
docosylamine,C22H47N,CCCCCCCCCCCCCCCCCCCCCCN,2736.546998,-110.8079617
docosylbenzene,C28H50,CCCCCCCCCCCCCCCCCCCCCCC1=CC=CC=C1,3955.907809,-91.95038832
docosylcyclohexane,C28H56,CCCCCCCCCCCCCCCCCCCCCCC1CCCCC1,4083.298007,-135.4996716
docosylcyclopentane,C27H54,CCCCCCCCCCCCCCCCCCCCCCC1CCCC1,3941.113338,-129.0943108
1-docosyne,C22H42,CCCCCCCCCCCCCCCCCCCCC#C,3206.5522972000003,-49.11812306
dodecanal,C12H24O,CCCCCCCCCCCC=O,1720.8432,-89.2209398
dodecane,C12H26,CCCCCCCCCCCC,1799.762981,-69.51011498
"1,2-dodecanediol",C12H26O2,CCCCCCCCCCC(CO)O,1736.306888,-143.5828545
"1,3-dodecanediol",C12H26O2,CCCCCCCCCC(CCO)O,1736.306888,-143.5828545
"1,4-dodecanediol",C12H26O2,CCCCCCCCC(CCCO)O,1736.306888,-143.5828545
"1,12-dodecanediol",C12H26O2,C(CCCCCCO)CCCCCO,1737.549719,-142.3209028
dodecanenitrile,C12H23N,CCCCCCCCCCCC#N,1346.272997,-30.14582678
1-dodecanethiol,C12H26S,CCCCCCCCCCCCS,1878.156949,-60.5163192
2-dodecanethiol,C12H26S,CCCCCCCCCCC(C)S,1876.914118,-62.5239696
dodecanoic acid,C12H24O2,CCCCCCCCCCCC(=O)O,1645.580211,-152.96384
1-dodecanol,C12H26O,CCCCCCCCCCCCO,1762.525846,-104.326119
2-dodecanol,C12H26O,CCCCCCCCCCC(C)O,1761.617624,-107.1989711
2-dodecanone,C12H24O,CCCCCCCCCCC(=O)C,1714.509541,-96.6301258
1-dodecene,C12H24,CCCCCCCCCCC=C,1772.109987,-39.5315924
dodecyl acetate,C14H28O2,CCCCCCCCCCCCOC(=O)C,1957.961053,-155.5212042
dodecylamine,C12H27N,CCCCCCCCCCCCN,1372.252949,-61.424542
dodecylbenzene,C18H30,CCCCCCCCCCCCC1=CC=CC=C1,2503.396645,-42.782074
dodecyl butanoate,C16H32O2,CCCCCCCCCCCCOC(=O)CCC,2250.934607,-165.153146
dodecylcyclohexane,C18H36,CCCCCCCCCCCCC1CCCCC1,2629.711316,-90.6071746
dodecylcyclopentane,C17H34,CCCCCCCCCCCCC1CCCC1,2488.984583,-79.7324016
dodecyl formate,C13H26O2,CCCCCCCCCCCCOC=O,1820.365298,-141.8261604
1-dodecylnaphthalene,C22H32,CCCCCCCCCCCCC1=CC=CC2=CC=CC=C21,2939.152384,-29.636744
2-dodecylnaphthalene,C22H32,CCCCCCCCCCCCC1=CC2=CC=CC=C2C=C1,2938.865577,-29.76341718
dodecyl propanoate,C15H30O2,CCCCCCCCCCCCOC(=O)CC,2095.652409,-159.8233122
1-dodecyne,C12H22,CCCCCCCCCCC#C,1753.610923,-0.0717018
2-dodecyne,C12H22,CCCCCCCCCC#CC,1749.356616,-4.47180226
3-dodecyne,C12H22,CCCCCCCCC#CCC,1742.35374,-4.47180226
dotriacontane,C32H66,CCCCCCCCCCCCCCCCCCCCCCCCCCCCCCCC,4713.580729599999,-168.2148129
1-dotriacontene,C32H64,CCCCCCCCCCCCCCCCCCCCCCCCCCCCCCC=C,4686.11894,-138.2362903
dotriacontylbenzene,C38H70,CCCCCCCCCCCCCCCCCCCCCCCCCCCCCCCCC1=CC=CC=C1,5417.07099,-141.2812267
dotriacontylcyclopentane,C37H74,CCCCCCCCCCCCCCCCCCCCCCCCCCCCCCCCC1CCCC1,5402.180916,-178.4251492
1-dotriacontyne,C32H62,CCCCCCCCCCCCCCCCCCCCCCCCCCCCCCC#C,4667.141864,-98.44896146
eicosanal,C20H40O,CCCCCCCCCCCCCCCCCCCC=O,2877.584439,-128.943737
eicosane,C20H42,CCCCCCCCCCCCCCCCCCCC,2954.90288,-109.0966788
"1,2-eicosanediol",C20H42O2,CCCCCCCCCCCCCCCCCCC(CO)O,2911.547191,-183.0475252
"1,3-eicosanediol",C20H42O2,CCCCCCCCCCCCCCCCCC(CCO)O,2911.547191,-183.0475252
"1,4-eicosanediol",C20H42O2,CCCCCCCCCCCCCCCCC(CCCO)O,2911.547191,-183.0475252
"1,20-eicosanediol",C20H42O2,C(CCCCCCCCCCO)CCCCCCCCCO,2912.8139232000003,-181.7855735
eicosanenitrile,C20H39N,CCCCCCCCCCCCCCCCCCCC#N,2376.53226,-69.6104975
1-eicosanethiol,C20H42S,CCCCCCCCCCCCCCCCCCCCS,3035.3762,-99.9523092
eicosanoic acid,C20H40O2,CCCCCCCCCCCCCCCCCCCC(=O)O,2813.196222,-192.638836
1-eicosanol,C20H42O,CCCCCCCCCCCCCCCCCCCCO,2924.429615,-144.6464312
2-eicosanol,C20H42O,CCCCCCCCCCCCCCCCCCC(C)O,2922.708772,-146.6636418
2-eicosanone,C20H40O,CCCCCCCCCCCCCCCCCCC(=O)C,2872.015599,-136.1378176
1-eicosene,C20H40,CCCCCCCCCCCCCCCCCCC=C,2935.686797,-79.1826878
eicosyl acetate,C22H44O2,CCCCCCCCCCCCCCCCCCCCOC(=O)C,3115.156403,-195.0766972
eicosylamine,C20H43N,CCCCCCCCCCCCCCCCCCCCN,2452.321063,-100.8127308
eicosylcyclohexane,C26H52,CCCCCCCCCCCCCCCCCCCCC1CCCCC1,3791.42388,-125.6335039
1-eicosyne,C20H38,CCCCCCCCCCCCCCCCCCC#C,2917.235534,-39.6032942
3-eicosyne,C20H38,CCCCCCCCCCCCCCCCC#CCC,2910.089255,-43.93647298
alpha-epichlorohydrin,C3H5ClO,C1C(O1)CCl,391.96984,-25.7648468
"1,2-epoxybutane",C4H8O,CCC1CO1,574.092412,-26.29066
epsilon-caprolactam,C6H11NO,C1CCC(=O)NCC1,661.1861984,-58.8432772
epsilon-caprolactone,C6H10O2,C1CCC(=O)OCC1,740.8946994,-101.7998256
ethane,C2H6,CC,341.4439716,-20.0287028
"4-ethenyl-1,2-dimethylbenzene",C10H12,CC1=C(C=C(C=C1)C=C)C,1298.806405,21.34084574
"2-ethenyl-1,3-dimethylbenzene",C10H12,CC1=C(C(=CC=C1)C)C=C,1298.806405,21.34084574
"2-ethenyl-1,4-dimethylbenzene",C10H12,CC1=CC(=C(C=C1)C)C=C,1298.806405,21.34084574
"1-ethenyl-2,4-dimethylbenzene",C10H12,CC1=CC(=C(C=C1)C=C)C,1298.5913,21.34084574
"1-ethenyl-3,5-dimethylbenzene",C10H12,CC1=CC(=CC(=C1)C=C)C,1298.806405,21.34084574
2-ethoxyethanol,C4H10O2,CCOCCO,569.551298,-95.6024
2-(2-ethoxyethoxy)ethanol,C6H14O3,CCOCCOCCO,822.6347514,-135.03839
2-ethoxyethyl acetate,C6H12O3,CCOCCOC(=O)C,755.3545624,-146.032666
"2-ethyl-1,2-butanediol",C6H14O2,CCC(CC)(CO)O,851.6739804,-117.1607412
"2-ethyl-1,3-butadiene",C6H10,CCC(=C)C=C,863.9110876,17.6625434
"2-ethyl-1,3-butanediol",C6H14O2,CCC(CO)C(C)O,839.8192828,-115.7745064
"2-ethyl-1,3-pentanediol",C7H16O2,CCC(CO)C(CC)O,987.5249908,-119.3595964
"2-ethyl-1,3-propanediol",C5H12O2,CCC(CO)CO,694.9816468,-108.986736
"2-ethyl-1,4-butanediol",C6H14O2,CC[C@H](CCO)CO,842.7590566,-112.8347326
2-ethyl-1-butanol,C6H14O,CCC(CC)CO,881.812637,-76.6970254
2-ethyl-1-butene,C6H12,CCC(=C)CC,890.894865,-13.384336
2-ethyl-1-heptanol,C9H20O,CCCCCC(CC)CO,1320.555951,-92.3997196
5-ethyl-1-heptanol,C9H20O,CCC(CC)CCCCO,1320.555951,-92.3997196
2-ethyl-1-hexanol,C8H18O,CCCCC(CC)CO,1173.5672611999998,-87.3088918
4-ethyl-1-hexanol,C8H18O,CCC(CC)CCCO,1174.188677,-87.46663576
2-ethyl-1-hexene,C8H16,CCCCC(=C)CC,1183.294805,-23.2791844
4-ethyl-1-hexene,C8H16,CCC(CC)CC=C,1186.115076,-20.7696214
2-ethyl-1-octanol,C10H22O,CCCCCCC(CC)CO,1467.138331,-97.33280344
2-ethyl-1-pentanol,C7H16O,CCCC(CC)CO,1027.701899,-82.53355192
3-ethyl-1-pentanol,C7H16O,CCC(CC)CCO,1027.701899,-82.53355192
2-ethyl-1-pentene,C7H14,CCCC(=C)CC,1037.094835,-18.3078596
3-ethyl-1-pentene,C7H14,CCC(CC)C=C,1039.3414916000002,-16.2046068
3-ethyl-1-pentyne,C7H12,CCC(CC)C#C,1021.009731,23.1357808
"3-ethyl-2,2,3-trimethylpentane",C10H22,CCC(C)(CC)C(C)(C)C,1507.100134,-60.37052554
"3-ethyl-2,2,4-trimethylpentane",C10H22,CCC(C(C)C)C(C)(C)C,1507.004532,-60.54978004
"3-ethyl-2,2-dimethylhexane",C10H22,CCCC(CC)C(C)(C)C,1505.546595,-61.8906037
"4-ethyl-2,2-dimethylhexane",C10H22,CCC(CC)CC(C)(C)C,1505.164186,-62.37100576
"3-ethyl-2,3,4-trimethylpentane",C10H22,CCC(C)(C(C)C)C(C)C,1507.267438,-60.09088852
"3-ethyl-2,3-dimethylhexane",C10H22,CCCC(C)(CC)C(C)C,1506.55042,-60.75054508
"4-ethyl-2,3-dimethylhexane",C10H22,CCC(CC)C(C)C(C)C,1506.861128,-60.43027704
"3-ethyl-2,4-dimethylhexane",C10H22,CCC(C)C(CC)C(C)C,1506.885029,-60.43027704
"4-ethyl-2,4-dimethylhexane",C10H22,CCC(C)(CC)CC(C)C,1506.096309,-61.23094714
"3-ethyl-2,4-pentanediol",C7H16O2,CCC(C(C)O)C(C)O,986.5689668,-120.937036
"3-ethyl-2,5-dimethylhexane",C10H22,CCC(CC(C)C)C(C)C,1505.1163843999998,-62.27062324
2-ethyl-2-heptanol,C9H20O,CCCCCC(C)(CC)O,1320.3647463999998,-93.22907042
3-ethyl-2-heptanol,C9H20O,CCCCC(CC)C(C)O,1319.815033,-93.66167128
1-ethyl-2-isopropylbenzene,C11H16,CCC1=CC=CC=C1C(C)C,1477.009279,-10.1338544
3-ethyl-2-methylheptane,C10H22,CCCCC(CC)C(C)C,1506.622122,-60.55934028
4-ethyl-2-methylheptane,C10H22,CCCC(CC)CC(C)C,1505.546595,-61.72090944
5-ethyl-2-methylheptane,C10H22,CCC(CC)CCC(C)C,1505.450993,-61.72090944
3-ethyl-2-methylhexane,C9H20,CCCC(CC)C(C)C,1359.681233,-56.0708076
4-ethyl-2-methylhexane,C9H20,CCC(CC)CC(C)C,1359.394426,-56.4532172
3-ethyl-2-methylpentane,C8H18,CCC(CC)C(C)C,1213.76807,-50.8604768
3-ethyl-2-pentanol,C7H16O,CCC(CC)C(C)O,1026.889279,-83.7955036
3-ethyl-2-pentanone,C7H14O,CCC(CC)C(=O)C,981.0240276,-73.05696402
3-ethyl-2-pentene,C7H14,CCC(=CC)CC,1035.517396,-19.8852992
1-ethyl-2-propylbenzene,C11H16,CCCC1=CC=CC=C1CC,1477.678496,-9.082228
"4-ethyl-3,3-dimethylhexane",C10H22,CCC(CC)C(C)(C)CC,1506.693824,-60.63104208
"3-ethyl-3,4-dimethylhexane",C10H22,CCC(C)C(C)(CC)CC,1507.291339,-60.05981774
ethyl-3-ethoxypropionate,C7H14O3,CCOCCC(=O)OCC,911.5927846,-151.290798
3-ethyl-3-heptanol,C9H20O,CCCCC(CC)(CC)O,1320.3647463999998,-93.22907042
3-ethyl-3-hexanol,C8H18O,CCCC(CC)(CC)O,1174.093074,-88.29598658
4-ethyl-3-hexanol,C8H18O,CCC(CC)C(CC)O,1173.423858,-88.72858744
3-ethyl-3-hexene,C8H16,CCC=C(CC)CC,1181.908571,-24.856624
1-ethyl-3-isopropylbenzene,C11H16,CCC1=CC(=CC=C1)C(C)C,1475.694746,-11.4005862
3-ethyl-3-methylheptane,C10H22,CCCCC(C)(CC)CC,1505.809502,-61.41020164
4-ethyl-3-methylheptane,C10H22,CCCC(CC)C(C)CC,1507.31524,-59.871003
3-ethyl-3-methylhexane,C9H20,CCCC(C)(CC)CC,1360.541655,-55.2820878
3-ethyl-3-octanol,C10H22O,CCCCCC(CC)(CC)O,1466.803723,-98.16215426
6-ethyl-3-octanol,C10H22O,CCC(CC)CCC(CC)O,1466.254009,-98.59475512
3-ethyl-3-pentanol,C7H16O,CCC(CC)(CC)O,1027.654098,-83.36290274
1-ethyl-3-propylbenzene,C11H16,CCCC1=CC=CC(=C1)CC,1476.459565,-10.3489598
4-ethyl-4-heptanol,C9H20O,CCCC(CC)(CCC)O,1320.436448,-93.22907042
1-ethyl-4-isopropylbenzene,C11H16,CCC1=CC=C(C=C1)C(C)C,1475.646945,-11.352785
3-ethyl-4-methylheptane,C10H22,CCCC(C)C(CC)CC,1507.31524,-59.871003
4-ethyl-4-methylheptane,C10H22,CCCC(C)(CC)CCC,1505.857303,-61.41020164
3-ethyl-4-methylhexane,C9H20,CCC(C)C(CC)CC,1358.605706,-57.0507322
3-ethyl-4-octanol,C10H22O,CCCCC(C(CC)CC)O,1466.397412,-98.59475512
1-ethyl-4-propylbenzene,C11H16,CCCC1=CC=C(C=C1)CC,1476.411764,-10.3011586
3-ethyl-4-propylheptane,C12H26,CCCC(CCC)C(CC)CC,1800.9341106000002,-69.1683364
3-ethyl-5-methylheptane,C10H22,CCC(C)CC(CC)CC,1506.14411,-61.03974234
3-ethyl-o-xylene,C10H14,CCC1=CC=CC(=C1C)C,1328.945062,-6.1305039
4-ethyl-o-xylene,C10H14,CCC1=CC(=C(C=C1)C)C,1327.391523,-7.66970254
2-ethyl-m-xylene,C10H14,CCC1=C(C=CC=C1C)C,1328.777758,-6.26912738
4-ethyl-m-xylene,C10H14,CCC1=C(C=C(C=C1)C)C,1327.8934353999998,-7.3613848
5-ethyl-m-xylene,C10H14,CCC1=CC(=CC(=C1)C)C,1326.841809,-8.4608124
2-ethyl-p-xylene,C10H14,CCC1=C(C=CC(=C1)C)C,1327.582728,-7.69121308
ethyl acetate,C4H8O2,CCOC(=O)C,493.427887,-106.238167
ethylacetoacetate,C6H10O3,CCOC(=O)CC(=O)C,708.9873984,-133.84336
ethylacetylene,C4H6,CCC#C,589.0541876,39.4837912
ethyl acrylate,C5H8O2,CCOC(=O)C=C,609.823809,-83.53976718
ethyl alcohol,C2H6O,CCO,295.889428,-56.16641
ethylamine,C2H7N,CCN,357.5051748,-11.352785
ethylbenzene,C8H10,CCC1=CC=CC=C1,1039.915106,7.146279399999999
ethyl benzoate,C9H10O2,CCOC(=O)C1=CC=CC=C1,1056.860631,-67.877704
2-ethylbutanal,C6H12O,CCC(CC)C=O,839.1022648000001,-63.575596
2-ethylbutanenitrile,C6H11N,CCC(CC)C#N,725.3593094,-3.3699846
ethyl butanoate,C6H12O2,CCCC(=O)OCC,786.6165471999999,-116.037413
ethylbutylamine,C6H15N,CCCCNCC,778.562045,-27.0554792
ethyl butyl ether,C6H14O,CCCCOCC,891.3967776,-69.8853544
ethyl sec-butyl ether,C6H14O,CCC(C)OCC,888.7199104,-72.8012276
ethyl tert-butyl ether,C6H14O,CCOC(C)(C)C,886.1864468,-75.645399
ethyl butyl sulfide,C6H14S,CCCCSCC,1001.076631,-29.9235512
ethyl chloride,C2H5Cl,CCCl,305.73647520000003,-26.8403738
ethyl chloroformate,C3H5ClO2,CCOC(=O)Cl,306.9315052,-109.464748
ethyl cyanoacetate,C5H7NO2,CCOC(=O)CC#N,502.629618,-75.55935684
ethylcyclobutane,C6H12,CCC1CCC1,897.5153312,-6.572665
ethylcyclohexane,C8H16,CCC1CCCCC1,1165.53666,-41.0134296
ethylcyclopentane,C7H14,CCC1CCCC1,1024.857728,-30.3298614
1-ethylcyclopentene,C7H12,CCC1=CCCC1,992.6636198,-4.7084182
3-ethylcyclopentene,C7H12,CCC1CCC=C1,995.6033936,-1.9359486
4-ethylcyclopentene,C7H12,CCC1CC=CC1,997.3242368,-0.2151054
ethylcyclopropane,C5H10,CCC1CC1,753.7293215999999,0.7648192
3-ethyldecane,C12H26,CCCCCCCC(CC)CC,1799.691279,-70.1243604