Name,Formula,SMILES,Enthalpy_combustion (kcal/mol),Enthalpy_formation (kcal/mol)
3-methyl-1-nonanol,C10H22O,CCCCCCC(C)CCO,1467.018828,-97.33280344
2-methyl-1-nonene,C10H20,CCCCCCCC(=C)C,1477.128782,-32.04831454
2-methyl-1-octadecene,C19H38,CCCCCCCCCCCCCCCCC(=C)C,2795.677083,-76.4460691
2-methyl-1-octanol,C9H20O,CCCCCCC(C)CO,1320.532051,-92.3997196
3-methyl-1-octanol,C9H20O,CCCCCC(C)CCO,1320.532051,-92.3997196
4-methyl-1-octanol,C9H20O,CCCCC(C)CCCO,1320.532051,-92.3997196
5-methyl-1-octanol,C9H20O,CCCC(C)CCCCO,1320.532051,-92.3997196
6-methyl-1-octanol,C9H20O,CCC(C)CCCCCO,1320.3647463999998,-92.3997196
7-methyl-1-octanol,C9H20O,CC(C)CCCCCCO,1314.987111,-92.3997196
2-methyl-1-octene,C9H18,CCCCCCC(=C)C,1330.785408,-27.1152307
2-methyl-1-pentadecene,C16H32,CCCCCCCCCCCCCC(=C)C,2356.001645,-61.64681758
2-methyl-1-pentanol,C6H14O,CCCC(C)CO,880.73711,-77.1750374
3-methyl-1-pentanol,C6H14O,CCC(C)CCO,881.9560405999999,-77.1750374
4-methyl-1-pentanol,C6H14O,CC(C)CCCO,881.5258298,-77.6530494
2-methyl-1-pentene,C6H12,CCCC(=C)C,890.1061451999999,-14.1730558
3-methyl-1-pentene,C6H12,CCC(C)C=C,892.806913,-11.711294
4-methyl-1-pentene,C6H12,CC(C)CC=C,892.1854974,-12.308809
3-methyl-1-pentyne,C6H10,CCC(C)C#C,874.5707551999999,27.9398014
4-methyl-1-pentyne,C6H10,CC(C)CC#C,873.686433,27.127181
(2-methyl-1-propenyl)benzene,C10H12,CC(=CC1=CC=CC=C1)C,1300.1687393999998,22.52153538
1-methyl-1-propylcyclopentane,C9H18,CCCC1(CCCC1)C,1321.32077,-36.65635022
2-methyl-1-propylnaphthalene,C14H16,CCCC1=C(C=CC2=CC=CC=C21)C,1773.496222,12.2610078
2-methyl-1-tetradecene,C15H30,CCCCCCCCCCCCC(=C)C,2209.490967,-56.71373374
2-methyl-1-tridecene,C14H28,CCCCCCCCCCCC(=C)C,2062.956388,-51.7806499
"2-methyl-2,3-butanediol",C5H12O2,CC(C(C)(C)O)O,685.9950212,-119.024988
"1-methyl-2,3-diethylbenzene",C11H16,CCC1=CC=CC(=C1CC)C,1476.65077,-10.038252
"2-methyl-2,3-pentadiene",C6H10,CC=C=C(C)C,870.9617645999999,24.627178240000003
"2-methyl-2,3-pentanediol",C6H14O2,CCC(C(C)(C)O)O,834.2265424,-120.937036
"3-methyl-2,3-pentanediol",C6H14O2,CCC(C)(C(C)O)O,834.9435604,-120.220018
"1-methyl-2,4-diethylbenzene",C11H16,CCC1=CC(=C(C=C1)C)CC,1475.097231,-11.6395922
"5-methyl-2,4-hexanediol",C7H16O2,CC(C)C(CC(C)O)O,984.6330182,-121.4413387
"3-methyl-2,4-pentanediol",C6H14O2,CC(C(C)O)C(C)O,835.6605784,-118.9532862
"1-methyl-2,5-diethylbenzene",C11H16,CCC1=CC(=C(C=C1)CC)C,1476.053255,-10.635767
1-methyl-2-(1-methylethenyl)benzene,C10H12,CC1=CC=CC=C1C(=C)C,1297.324568,19.44074804
cis-1-methyl-2-(1-propenyl)benzene,C10H12,C/C=C\C1=CC=CC=C1C,1299.595125,22.1200053
2-methyl-2-butanethiol,C5H12S,CCC(C)(C)S,850.1204414,-30.3059608
3-methyl-2-butanethiol,C5H12S,CC(C)C(C)S,851.1959684,-28.919726
3-methyl-2-butanol,C5H12O,CC(C)C(C)O,731.9797755999999,-75.1793373
2-methyl-2-butene,C5H10,CC=C(C)C,743.1174552,-9.7514448
trans-2-methyl-2-butenoic acid,C5H8O2,C/C=C(\C)/C(=O)O,593.9538106,-93.0211352
cis-2-methyl-2-butenoic acid,C5H8O2,C/C=C(/C)\C(=O)O,594.2645184,-93.0211352
3-methyl-2-butenoic acid,C5H8O2,CC(=CC(=O)O)C,593.4040968,-93.6664514
"2-methyl-2-ethyl-1,3-propanediol",C6H14O2,CCC(C)(CO)CO,855.0200644,-113.8146572
3-methyl-2-ethyl-1-butanol,C7H16O,CCC(CO)C(C)C,1026.6263723999998,-83.7955036
3-methyl-2-ethyl-1-butene,C7H14,CCC(=C)C(C)C,1036.258314,-19.3833866
4-methyl-2-ethyl-1-pentanol,C8H18O,CCC(CC(C)C)CO,1173.11315,-88.72858744
1-methyl-cis-2-ethylcyclohexane,C9H18,CC[C@@H]1CCCC[C@@H]1C,1311.019612,-46.845176
1-methyl-trans-2-ethylcyclohexane,C9H18,CC[C@@H]1CCCC[C@H]1C,1310.15919,-47.8012
1-methyl-cis-2-ethylcyclopentane,C8H16,CC[C@H]1CCC[C@H]1C,1166.373181,-40.22709986
3-methyl-2-ethylthiophene,C7H10S,CCC1=C(C=CS1)C,1016.492518,7.38289534
2-methyl-2-heptanol,C8H18O,CCCCCC(C)(C)O,1174.140876,-88.29598658
3-methyl-2-heptanol,C8H18O,CCCCC(C)C(C)O,1173.376056,-88.72858744
4-methyl-2-heptanol,C8H18O,CCCC(C)CC(C)O,1173.232653,-88.72858744
5-methyl-2-heptanol,C8H18O,CCC(C)CCC(C)O,1173.232653,-88.72858744
6-methyl-2-heptanol,C8H18O,CC(C)CCCC(C)O,1173.232653,-88.72858744
2-methyl-2-heptene,C8H16,CCCCC=C(C)C,1181.143751,-25.4780396
2-methyl-2-hexanol,C7H16O,CCCCC(C)(C)O,1027.654098,-83.36290274
3-methyl-2-hexanol,C7H16O,CCCC(C)C(C)O,1026.889279,-83.7955036
4-methyl-2-hexanol,C7H16O,CCC(C)CC(C)O,1026.91318,-83.7955036
5-methyl-2-hexanol,C7H16O,CC(C)CCC(C)O,1026.91318,-83.7955036
3-methyl-2-hexanone,C7H14O,CCCC(C)C(=O)C,980.9762264,-73.05696402
4-methyl-2-hexanone,C7H14O,CCC(C)CC(=O)C,981.000127,-73.05696402
5-methyl-2-hexanone,C7H14O,CC(C)CCC(=O)C,981.0479282,-72.657824
2-methyl-2-hexene,C7H14,CCCC=C(C)C,1034.89598,-20.5067148
3-methyl-cis-2-hexene,C7H14,CCC/C(=C\C)/C,1035.230588,-20.1482058
3-methyl-trans-2-hexene,C7H14,CCC/C(=C/C)/C,1035.206688,-20.196007
4-methyl-cis-2-hexene,C7H14,CCC(C)/C=C\C,1037.525046,-18.0927542
4-methyl-trans-2-hexene,C7H14,CCC(C)/C=C/C,1036.353917,-19.239983
5-methyl-cis-2-hexene,C7H14,C/C=C\CC(C)C,1036.951432,-18.5946668
5-methyl-trans-2-hexene,C7H14,C/C=C/CC(C)C,1035.899805,-19.6701938
5-methyl-2-hexyne,C7H12,CC#CCC(C)C,1015.321389,17.782046400000002
3-methyl-2-isopropyl-1-butanol,C8H18O,CC(C)C(CO)C(C)C,1172.037623,-89.99053912
3-methyl-2-isopropylphenol,C10H14O,CC1=C(C(=CC=C1)O)C(C)C,1279.757627,-49.53638356
4-methyl-2-isopropylphenol,C10H14O,CC1=CC(=C(C=C1)O)C(C)C,1279.757627,-49.53638356
5-methyl-2-isopropylphenol,C10H14O,CC1=CC(=C(C=C1)C(C)C)O,1279.184013,-49.53638356
2-methyl-2-nonanol,C10H22O,CCCCCCCC(C)(C)O,1466.421313,-98.16215426
3-methyl-2-nonanol,C10H22O,CCCCCCC(C)C(C)O,1465.871599,-98.59475512
6-methyl-2-nonanol,C10H22O,CCCC(C)CCCC(C)O,1465.871599,-98.59475512
2-methyl-2-octanol,C9H20O,CCCCCCC(C)(C)O,1320.460349,-93.22907042
3-methyl-2-octanol,C9H20O,CCCCCC(C)C(C)O,1319.838933,-93.66167128
5-methyl-2-octanol,C9H20O,CCCC(C)CCC(C)O,1319.838933,-93.66167128
7-methyl-2-octanol,C9H20O,CC(C)CCCCC(C)O,1319.838933,-93.66167128
4-methyl-2-pentanol,C6H14O,CC(C)CC(C)O,877.8690379999999,-81.0708352
2-methyl-2-pentanol,C6H14O,CCCC(C)(C)O,876.554505,-83.413094
3-methyl-2-pentanol,C6H14O,CCC(C)C(C)O,879.5420799999999,-80.1148112
3-methyl-2-pentanone,C6H12O,CCC(C)C(=O)C,835.4932742,-67.4474932
4-methyl-2-pentanone,C6H12O,CC(C)CC(=O)C,834.0353375999999,-68.4513184
3-methyl-trans-2-pentene,C6H12,CC/C(=C/C)/C,889.10232,-14.937875
2-methyl-2-pentene,C6H12,CCC=C(C)C,888.2896996,-15.8460978
3-methyl-cis-2-pentene,C6H12,CC/C(=C\C)/C,889.0784194,-15.057378
4-methyl-cis-2-pentene,C6H12,C/C=C\C(C)C,890.775362,-13.6950438
4-methyl-trans-2-pentene,C6H12,C/C=C/C(C)C,889.7476362,-14.6510678
4-methyl-2-pentyne,C6H10,CC#CC(C)C,869.6472315999999,23.303085
"2-methyl-2-propyl-1,3-propanediol",C7H16O2,CCCC(C)(CO)CO,1001.889251,-118.785982
4-methyl-2-propyl-1-pentanol,C9H20O,CCCC(CC(C)C)CO,1331.64583,-81.5846981
1-methyl-2-propylbenzene,C10H14,CCCC1=CC=CC=C1C,1330.618104,-4.72753868
1-methyl-2-propylnaphthalene,C14H16,CCCC1=C(C2=CC=CC=C2C=C1)C,1773.496222,12.2610078
3-methyl-2-propylphenol,C10H14O,CCCC1=C(C=CC=C1O)C,1279.184013,-48.27443188
4-methyl-2-propylphenol,C10H14O,CCCC1=C(C=CC(=C1)C)O,1278.873305,-48.27443188
5-methyl-2-propylphenol,C10H14O,CCCC1=C(C=C(C=C1)C)O,1278.873305,-48.27443188
3-methyl-2-thiahexane,C6H14S,CCCC(C)SC,999.9533028,-31.2380842
5-methyl-2-thiahexane,C6H14S,CC(C)CCSC,1000.216209,-30.9990782
3-methyl-2-thiapentane,C5H12S,CCC(C)SC,853.848935,-26.27631964
4-methyl-2-thiapentane,C5H12S,CC(C)CSC,853.8250344,-26.27631964
"2-methyl-3,3-diethylhexane",C11H24,CCCC(CC)(CC)C(C)C,1656.526685,-62.0698582
"1-methyl-3,4-diethylbenzene",C11H16,CCC1=C(C=C(C=C1)C)CC,1473.806598,-12.9541252
"2-methyl-3,4-diethylheptane",C12H26,CCCC(CC)C(CC)C(C)C,1802.224743,-67.9016046
"3-methyl-3,4-diethylhexane",C11H24,CCC(CC)C(C)(CC)CC,1656.502785,-62.0937588
"1-methyl-3,5-diethylbenzene",C11H16,CCC1=CC(=CC(=C1)C)CC,1474.5953181999998,-12.2371072
1-methyl-3-(1-methylethenyl)benzene,C10H12,CC1=CC(=CC=C1)C(=C)C,1297.037761,19.44074804
2-methyl-3-butenoic acid,C5H8O2,CC(C=C)C(=O)O,605.1392914,-86.5679732
3-methyl-3-butenoic acid,C5H8O2,CC(=C)CC(=O)O,599.4748492,-92.2085148
1-methyl-3-tert-butylbenzene,C11H16,CC1=CC(=CC=C1)C(C)(C)C,1474.2846103999998,-13.0497276
2-methyl-3-ethyl-1-pentene,C8H16,CCC(CC)C(=C)C,1182.864595,-24.0679042
2-methyl-3-ethyl-2-pentanol,C8H18O,CCC(CC)C(C)(C)O,1172.969746,-89.55793826
2-methyl-3-ethyl-2-pentene,C8H16,CCC(=C(C)C)CC,1181.597863,-25.215133
5-methyl-3-ethyl-3-heptanol,C10H22O,CCC(C)CC(CC)(CC)O,1465.799897,-99.42410594
2-methyl-3-ethyl-3-pentanol,C8H18O,CCC(CC)(C(C)C)O,1172.898044,-89.55793826
1-methyl-cis-3-ethylcyclopentane,C8H16,CC[C@@H]1CC[C@@H](C1)C,1166.516584,-40.22709986
1-methyl-trans-3-ethylcyclopentane,C8H16,CC[C@@H]1CC[C@H](C1)C,1166.516584,-40.22709986
3-methyl-3-ethylpentane,C8H18,CCC(C)(CC)CC,1213.313959,-51.3623894
2-methyl-3-heptanol,C8H18O,CCCCC(C(C)C)O,1173.3282551999998,-88.72858744
3-methyl-3-heptanol,C8H18O,CCCCC(C)(CC)O,1174.045273,-88.29598658
4-methyl-3-heptanol,C8H18O,CCCC(C)C(CC)O,1173.638963,-88.72858744
5-methyl-3-heptanol,C8H18O,CCC(C)CC(CC)O,1173.686764,-88.72858744
6-methyl-3-heptanol,C8H18O,CCC(CCC(C)C)O,1173.51946,-88.72858744
2-methyl-trans-3-heptene,C8H16,CCC/C=C/C(C)C,1182.195378,-24.6654192
2-methyl-3-hexanol,C7H16O,CCCC(C(C)C)O,1027.056583,-83.7955036
3-methyl-3-hexanol,C7H16O,CCCC(C)(CC)O,1027.654098,-83.36290274
4-methyl-3-hexanol,C7H16O,CCC(C)C(CC)O,1026.960981,-83.7955036
5-methyl-3-hexanol,C7H16O,CCC(CC(C)C)O,1026.984881,-83.7955036
2-methyl-3-hexanone,C7H14O,CCCC(=O)C(C)C,981.1435306,-73.05696402
4-methyl-3-hexanone,C7H14O,CCC(C)C(=O)CC,981.0718288,-73.05696402
5-methyl-3-hexanone,C7H14O,CCC(=O)CC(C)C,981.0718288,-73.05696402
2-methyl-trans-3-hexene,C7H14,CC/C=C/C(C)C,1035.923706,-19.6940944
3-methyl-cis-3-hexene,C7H14,CC/C=C(/C)\CC,1035.923706,-19.478989
3-methyl-trans-3-hexene,C7H14,CC/C=C(\C)/CC,1035.612998,-19.837498
2-methyl-3-hexyne,C7H12,CCC#CC(C)C,1015.512593,17.829847599999997
1-methyl-3-isobutylbenzene,C11H16,CC1=CC(=CC=C1)CC(C)C,1474.308511,-12.7390198
4-methyl-3-isopropylphenol,C10H14O,CC1=C(C=C(C=C1)O)C(C)C,1279.662025,-49.53638356
2-methyl-3-nonanol,C10H22O,CCCCCCC(C(C)C)O,1466.015003,-98.59475512
3-methyl-3-nonanol,C10H22O,CCCCCCC(C)(CC)O,1466.540816,-98.16215426
2-methyl-3-octanol,C9H20O,CCCCCC(C(C)C)O,1319.767231,-93.66167128
3-methyl-3-octanol,C9H20O,CCCCCC(C)(CC)O,1320.1974421999998,-93.22907042
4-methyl-3-octanol,C9H20O,CCCCC(C)C(CC)O,1319.71943,-93.66167128
6-methyl-3-octanol,C9H20O,CCC(C)CCC(CC)O,1319.71943,-93.66167128
7-methyl-3-octanol,C9H20O,CCC(CCCC(C)C)O,1319.71943,-93.66167128
2-methyl-3-pentanol,C6H14O,CCC(C(C)C)O,879.781086,-80.1148112
3-methyl-3-pentanol,C6H14O,CCC(C)(CC)O,877.749535,-82.218064
1-methyl-3-propylbenzene,C10H14,CCCC1=CC=CC(=C1)C,1329.638179,-5.76960484
2-methyl-3-propylphenol,C10H14O,CCCC1=C(C(=CC=C1)O)C,1279.662025,-48.27443188
4-methyl-3-propylphenol,C10H14O,CCCC1=C(C=CC(=C1)O)C,1278.873305,-48.27443188
4-methyl-3-thiahexane,C6H14S,CCC(C)SCC,999.4752908,-31.8355992
2-methyl-3-thiapentane,C5H12S,CCSC(C)C,854.0401398,-26.27631964
1-methyl-4-(1-methylethenyl)benzene,C10H12,CC1=CC=C(C=C1)C(=C)C,1297.01386,19.44074804
1-methyl-4-sec-butylbenzene,C11H16,CCC(C)C1=CC=C(C=C1)C,1475.121131,-11.8546976
1-methyl-4-tert-butylbenzene,C11H16,CC1=CC=C(C=C1)C(C)(C)C,1474.2846103999998,-12.9780258
1-methyl-cis-4-ethylcyclohexane,C9H18,CCC1CCC(CC1)C,1310.398196,-47.562194
1-methyl-trans-4-ethylcyclohexane,C9H18,CCC1CCC(CC1)C,1308.796856,-49.235236
2-methyl-4-ethylnaphthalene,C13H14,CCC1=CC(=CC2=CC=CC=C21)C,1625.957818,15.057378
3-methyl-4-ethylnonane,C12H26,CCCCCC(CC)C(C)CC,1800.12149,-69.8614538
2-methyl-4-ethylphenol,C9H12O,CCC1=CC(=C(C=C1)O)C,1133.820563,-43.34134804
3-methyl-4-ethylphenol,C9H12O,CCC1=C(C=C(C=C1)O)C,1133.772762,-43.34134804
2-methyl-4-heptanol,C8H18O,CCCC(CC(C)C)O,1173.376056,-88.72858744
3-methyl-4-heptanol,C8H18O,CCCC(C(C)CC)O,1173.399957,-88.72858744
4-methyl-4-heptanol,C8H18O,CCCC(C)(CCC)O,1174.045273,-88.29598658
1-methyl-4-isobutylbenzene,C11H16,CC1=CC=C(C=C1)CC(C)C,1474.308511,-12.6912186
2-methyl-4-isopropylheptane,C11H24,CCCC(CC(C)C)C(C)C,1651.722665,-67.0889842
3-methyl-4-isopropylheptane,C11H24,CCCC(C(C)C)C(C)CC,1655.11655,-63.5994966
3-methyl-4-isopropylphenol,C10H14O,CC1=C(C=CC(=C1)O)C(C)C,1279.542522,-49.53638356
2-methyl-4-nonanol,C10H22O,CCCCCC(CC(C)C)O,1465.991102,-98.59475512
4-methyl-4-nonanol,C10H22O,CCCCCC(C)(CCC)O,1466.540816,-98.16215426
5-methyl-4-nonanol,C10H22O,CCCCC(C)C(CCC)O,1465.991102,-98.59475512
2-methyl-4-octanol,C9H20O,CCCCC(CC(C)C)O,1319.767231,-93.66167128
3-methyl-4-octanol,C9H20O,CCCCC(C(C)CC)O,1319.862834,-93.66167128
4-methyl-4-octanol,C9H20O,CCCCC(C)(CCC)O,1320.388647,-93.22907042
5-methyl-4-octanol,C9H20O,CCCC(C)C(CCC)O,1319.815033,-93.66167128
6-methyl-4-octanol,C9H20O,CCCC(CC(C)CC)O,1319.815033,-93.66167128
7-methyl-4-octanol,C9H20O,CCCC(CCC(C)C)O,1319.815033,-93.66167128
1-methyl-4-propylbenzene,C10H14,CCCC1=CC=C(C=C1)C,1330.020589,-5.53059884
2-methyl-4-propylheptane,C11H24,CCCC(CCC)CC(C)C,1652.105074,-66.5870716
3-methyl-4-propylheptane,C11H24,CCCC(CCC)C(C)CC,1653.682514,-64.890129
4-methyl-4-propylheptane,C11H24,CCCC(C)(CCC)CCC,1652.583086,-66.1090596
2-methyl-4-propyloctane,C12H26,CCCCC(CCC)CC(C)C,1798.663554,-71.5344958
3-methyl-4-propyloctane,C12H26,CCCCC(CCC)C(C)CC,1800.264894,-69.8136526
4-methyl-4-propyloctane,C12H26,CCCCC(C)(CCC)CCC,1799.069864,-71.0564838
2-methyl-4-propylphenol,C10H14O,CCCC1=CC(=C(C=C1)O)C,1279.662025,-48.27443188
3-methyl-4-propylphenol,C10H14O,CCCC1=C(C=C(C=C1)O)C,1284.728952,-48.27443188
1-methyl-5-ethylnaphthalene,C13H14,CCC1=CC=CC2=C(C=CC=C21)C,1627.463556,16.491414
2-methyl-5-ethylnaphthalene,C13H14,CCC1=CC=CC2=C1C=CC(=C2)C,1626.02952,15.057378
4-methyl-5-ethyloctane,C11H24,CCCC(C)C(CC)CCC,1653.658613,-64.890129
2-methyl-5-ethylphenol,C9H12O,CCC1=CC(=C(C=C1)C)O,1138.696286,-43.34134804
3-methyl-5-ethylphenol,C9H12O,CCC1=CC(=CC(=C1)C)O,1133.6293586000002,-43.34134804
2-methyl-5-isopropylphenol,C10H14O,CC1=C(C=C(C=C1)C(C)C)O,1284.1553373999998,-49.53638356
2-methyl-5-nonanol,C10H22O,CCCCC(CCC(C)C)O,1465.991102,-98.59475512
3-methyl-5-nonanol,C10H22O,CCCCC(CC(C)CC)O,1465.991102,-98.59475512
5-methyl-5-nonanol,C10H22O,CCCCC(C)(CCCC)O,1466.540816,-98.16215426
2-methyl-5-propyloctane,C12H26,CCCC(CCC)CCC(C)C,1798.52015,-71.6778994
3-methyl-5-propyloctane,C12H26,CCCC(CCC)CC(C)CC,1799.165466,-70.984782
4-methyl-5-propyloctane,C12H26,CCCC(C)C(CCC)CCC,1800.336596,-69.7658514
2-methyl-6-ethylnaphthalene,C13H14,CCC1=CC2=C(C=C1)C=C(C=C2)C,1624.930092,14.6510678
2-methyl-6-propylphenol,C10H14O,CCCC1=CC=CC(=C1O)C,1279.662025,-48.27443188
1-methyl-7-isopropylnaphthalene,C14H16,CC1=C2C=C(C=CC2=CC=C1)C(C)C,1775.049761,12.2610078
2-methyl-8-ethylnaphthalene,C13H14,CCC1=CC=CC2=C1C=C(C=C2)C,1625.312502,14.32123952
methyl-propylamine,C4H11N,CCCNC,595.4595484,-15.774396
"methyl 1,1-dimethylpropyl ether",C6H14O,CCC(C)(C)OC,890.1539464,-71.3910922
methyl 1-methylbutyl ether,C6H14O,CCCC(C)OC,891.3967776,-69.909255
methyl 2-methylbutyl ether,C6H14O,CC[C@@H](C)COC,893.4044279999999,-67.9255052
methyl 3-methylbutyl ether,C6H14O,CC(C)CCOC,892.7830124,-68.5469208
methyl acetate,C3H6O2,CC(=O)OC,349.7613804,-98.4465714
methyl acetoacetate,C5H8O3,CC(=O)CC(=O)OC,550.3352156,-140.774534
methylacetylene,C3H4,CC#C,441.8264916,44.096607
methyl acrylate,C4H6O2,COC(=O)C=C,462.2854052,-79.588998
methylal,C3H8O2,COCOC,423.4469302,-83.2218892
methyl alcohol,CH4O,CO,153.2267466,-48.0163054
methylamine,CH5N,CN,228.011724,-5.377635
methyl benzoate,C8H8O2,COC(=O)C1=CC=CC=C1,904.2313998,-68.8098274
2-methylbenzofuran,C9H8O,CC1=CC2=CC=CC=C2O1,1075.646503,-1.9717995
methyl bromide,CH3Br,CBr,168.021218,-9.0105262
2-methylbutanal,C5H10O,CCC(C)C=O,695.2445534,-56.2142112
3-methylbutanal,C5H10O,CC(C)CC=O,694.909945,-56.524919
2-methylbutanenitrile,C5H9N,CCC(C)C#N,624.7377834,1.0994275999999998
3-methylbutanenitrile,C5H9N,CC(C)CC#N,624.4509761999999,1.0516264
methyl butanoate,C5H10O2,CCCC(=O)OC,643.523655,-107.7200042
3-methylbutanoic acid,C5H10O2,CC(C)CC(=O)O,628.6574818,-120.220018
1-methylbutyl acetate,C7H14O2,CCCC(C)OC(=O)C,929.0641232,-125.1674422
2-methylbutyl acetate,C7H14O2,CCC(C)COC(=O)C,931.7170898,-122.3471714
1-methylbutylamine,C5H13N,CCCC(C)N,682.601136,-29.3260362
2-methylbutylamine,C5H13N,CCC(C)CN,682.3860305999999,-29.3260362
3-methylbutylamine,C5H13N,CC(C)CCN,684.6087864,-26.9359762
1-methylbutyl butanoate,C9H18O2,CCCC(C)OC(=O)CCC,1221.296759,-134.799384
2-methylbutyl butanoate,C9H18O2,CCCC(=O)OCC(C)CC,1224.666744,-131.9791132
3-methylbutyl butanoate,C9H18O2,CCCC(=O)OCCC(C)C,1224.8101476000002,-131.811809
methyl butyl ether,C5H12O,CCCCOC,748.0170781999999,-61.6874486
methyl sec-butyl ether,C5H12O,CCC(C)OC,745.4358134,-64.651123
methyl tert-butyl ether,C5H12O,CC(C)(C)OC,742.5677414,-67.6864992
1-methylbutyl formate,C6H12O2,CCCC(C)OC=O,791.3010648000001,-111.4484978
2-methylbutyl formate,C6H12O2,CCC(C)COC=O,794.1691368,-108.628227
2-methylbutyl propanoate,C8H16O2,CCC(C)COC(=O)CC,1078.371171,-126.6492794
methyl butyl sulfide,C5H12S,CCCCSC,855.3785734,-24.3547114
2-methylbutyric acid,C5H10O2,CCC(C)C(=O)O,629.2788974,-118.785982
methyl chloride,CH3Cl,CCl,161.13784520000002,-19.598492
methyl chloroacetate,C3H5ClO2,COC(=O)CCl,309.89517959999995,-107.313694
methyl chloroformate,C2H3ClO2,COC(=O)Cl,173.4466542,-101.338544
methyl cyanoacetate,C4H5NO2,COC(=O)CC#N,407.624733,-56.644422
methylcyclobutane,C5H10,CC1CCC1,751.5065658,-1.6252408
methylcyclohexane,C7H14,CC1CCCCC1,1018.308964,-36.9742282
1-methylcyclohexanol,C7H14O,CC1(CCCCC1)O,969.9580498,-79.349992
cis-2-methylcyclohexanol,C7H14O,C[C@H]1CCCC[C@H]1O,973.6865434,-78.154962
trans-2-methylcyclohexanol,C7H14O,C[C@@H]1CCCC[C@H]1O,967.4723874,-84.2735156
cis-3-methylcyclohexanol,C7H14O,C[C@H]1CCC[C@H](C1)O,967.6874928,-83.8672054
trans-3-methylcyclohexanol,C7H14O,C[C@H]1CCC[C@@H](C1)O,972.993426,-78.6568746
cis-4-methylcyclohexanol,C7H14O,CC1CCC(CC1)O,965.6081406,-83.054585
trans-4-methylcyclohexanol,C7H14O,CC1CCC(CC1)O,960.9475236,-87.7630032
methylcyclopentadiene,C6H8,CC1=CC=CC1,819.3603691999999,23.9006
methylcyclopentane,C6H12,CC1CCCC1,878.705559,-25.334636
1-methylcyclopentene,C6H10,CC1=CCCC1,845.4359238000001,-0.8843222
3-methylcyclopentene,C6H10,CC1CCC=C1,847.5391766,1.19503
4-methylcyclopentene,C6H10,CC1CC=CC1,848.9015108,2.6529666
methylcyclopropane,C4H8,CC1CC1,613.3371972,5.97515
2-methyldecane,C11H24,CCCCCCCCC(C)C,1652.391882,-65.8820039
3-methyldecane,C11H24,CCCCCCCC(C)CC,1652.367981,-65.8820039
4-methyldecane,C11H24,CCCCCCC(C)CCC,1652.654788,-65.6310476
5-methyldecane,C11H24,CCCCCC(C)CCCC,1652.702589,-65.6310476
methyldecylamine,C11H25N,CCCCCCCCCCNC,1296.703152,-51.8404014
methyl dichlorosilane,CH4Cl2Si,C[Si](Cl)Cl,315.8225284,-96.080412
methyl diethanolamine,C5H13NO2,CN(CCO)CCO,610.2779204,-90.82228
methyldiethylamine,C5H13N,CCN(C)CC,692.8066921999999,-18.283959
methyldiisopropylamine,C7H17N,CC(C)N(C)C(C)C,880.617607,-31.27154504
2-methyldiphenylmethane,C14H14,CC1=CC=CC=C1CC2=CC=CC=C2,1741.302114,31.8116986
3-methyldiphenylmethane,C14H14,CC1=CC(=CC=C1)CC2=CC=CC=C2,1741.349915,31.8116986
4-methyldiphenylmethane,C14H14,CC1=CC=C(C=C1)CC2=CC=CC=C2,1741.278213,31.8116986
methyldipropylamine,C7H17N,CCCN(C)CCC,883.1749712,-28.74764168
2-methyldodecane,C13H28,CCCCCCCCCCC(C)C,1945.413238,-75.74817158
3-methyldodecane,C13H28,CCCCCCCCCC(C)CC,1945.413238,-75.74817158
methyl dodecanoate,C13H26O2,CCCCCCCCCCCC(=O)OC,1815.178868,-146.3433738
methyl dodecyl sulfide,C13H28S,CCCCCCCCCCCCSC,2025.767055,-63.6233972
2-methylenebutanoic acid,C5H8O2,CCC(=C)C(=O)O,583.8677574,-107.6961036
methylethanolamine,C3H9NO,CNCCO,441.9698952,-47.323188
methylethylamine,C3H9N,CCNC,483.6047404,-10.8030712
methyl ethyl ether,C3H8O,CCOC,461.5683872,-51.744799
methyl ethyl ketone,C4H8O,CCC(=O)C,542.8782284,-57.0268316
methylethylpropylamine,C6H15N,CCCN(C)CC,782.0754331999999,-23.2552838
methyl ethyl sulfide,C3H8S,CCSC,563.0025336,-14.1969564
methyl fluoride,CH3F,CF,123.924611,-56.8117262
methyl formate,C2H4O2,COC=O,213.3606562,-83.5803982
2-methylfuran,C5H6O,CC1=CC=CO1,620.7463832,-15.8460978
3-methylfuran,C5H6O,CC1=COC=C1,620.4834766,-16.0612032
methylglutaronitrile,C6H8N2,CC(CCC#N)C#N,546.3199148,33.938852