Name,Formula,SMILES,Enthalpy_combustion (kcal/mol),Enthalpy_formation (kcal/mol)
4-ethyldecane,C12H26,CCCCCCC(CC)CCC,1799.834683,-70.0765592
5-ethyldecane,C12H26,CCCCCC(CC)CCCC,1799.882484,-70.0765592
ethyl decyl sulfide,C12H26S,CCCCCCCCCCSCC,1878.252552,-59.83993222
2-ethyldiphenylmethane,C15H16,CCC1=CC=CC=C1CC2=CC=CC=C2,1887.932295,26.8403738
3-ethyldiphenylmethane,C15H16,CCC1=CC(=CC=C1)CC2=CC=CC=C2,1887.932295,26.8403738
4-ethyldiphenylmethane,C15H16,CCC1=CC=C(C=C1)CC2=CC=CC=C2,1887.788891,26.8403738
ethylene,C2H4,C=C,316.2288386,12.547815
ethylene carbonate,C3H4O3,C1COC(=O)O1,261.2813592,-120.9131354
ethylenediamine,C2H8N2,C(CN)N,361.8311834,-4.13958392
ethylene glycol,C2H6O2,C(CO)O,256.3100344,-92.614825
ethylene glycol diacetate,C6H10O4,CC(=O)OCCOC(=O)C,649.5227056,-192.877842
ethylene glycol monopropyl ether,C5H12O2,CCCOCCO,706.3344318000001,-100.621526
ethyleneimine,C2H5N,C1CN1,334.8952072,29.50051058
ethylene oxide,C2H4O,C1CO1,291.109308,-12.5717156
ethylene sulfide,C2H4S,C1CS1,387.3331236,19.68931428
ethyl fluoride,C2H5F,CCF,269.3836626,-63.1931864
ethyl formate,C3H6O2,CCOC=O,355.5931268,-92.8060298
2-ethylfuran,C6H8O,CCC1=CC=CO1,764.3650885999999,-23.3986874
3-ethylfuran,C6H8O,CCC1=COC=C1,764.3889892,-23.3986874
3-ethylheptane,C9H20,CCCCC(CC)CC,1360.398251,-55.329889
4-ethylheptane,C9H20,CCCC(CC)CCC,1360.207047,-55.4015908
ethylheptylamine,C9H21N,CCCCCCCNCC,1086.210568,-41.97423372
ethyl heptyl sulfide,C9H20S,CCCCCCCSCC,1439.676542,-44.69890212
2-ethylhexanal,C8H16O,CCCCC(CC)C=O,1128.299525,-71.6061976
3-ethylhexane,C8H18,CCCC(CC)CC,1211.019501,-50.3585642
2-ethylhexyl acetate,C10H20O2,CCCCC(CC)COC(=O)C,1371.751036,-136.23342
2-ethylhexyl acrylate,C11H20O2,CCCCC(CC)COC(=O)C=C,1489.222485,-112.33282
ethylhexylamine,C8H19N,CCCCCCNCC,980.7372203999998,-37.04114988
ethyl hexyl sulfide,C8H18S,CCCCCCSCC,1293.40487,-39.7705984
ethylidene diacetate,C6H10O4,CC(OC(=O)C)OC(=O)C,647.9691666,-194.072872
ethyl iodide,C2H5I,CCI,315.9181308,-2.0076504
ethyl isobutanoate,C6H12O2,CCOC(=O)C(C)C,783.461668,-119.4073976
ethyl isobutyl ether,C6H14O,CCOCC(C)C,890.1061451999999,-71.4149928
ethyl isocyanide,C3H5N,CC[N+]#[C-],406.0950946,19.84849228
ethylisopropylamine,C5H13N,CCNC(C)C,685.708214,-25.1673318
ethyl isopropyl ether,C5H12O,CCOC(C)C,742.0180276,-68.3079148
ethyl isopropyl ketone,C6H12O,CCC(=O)C(C)C,834.5850514,-68.3796166
ethyl isovalerate,C7H14O2,CCOC(=O)CC(C)C,928.179801,-125.956162
ethyl lactate,C5H10O3,CCOC(=O)C(C)O,596.1765664,-151.76881
ethyl mercaptan,C2H6S,CCS,414.9861178,-10.994276
ethyl methacrylate,C6H10O2,CCOC(=O)C(=C)C,750.837349,-91.061286
1-ethylnaphthalene,C12H12,CCC1=CC=CC2=CC=CC=C21,1486.9519283999998,23.0999299
2-ethylnaphthalene,C12H12,CCC1=CC2=CC=CC=C2C=C1,1486.760724,22.9206754
ethyl nitrate,C2H5NO3,CCO[N+](=O)[O-],275.693421,-36.79975382
3-ethylnonane,C11H24,CCCCCCC(CC)CC,1653.1089,-65.1769362
4-ethylnonane,C11H24,CCCCCC(CC)CCC,1653.252303,-65.129135
5-ethylnonane,C11H24,CCCCC(CC)CCCC,1653.347906,-65.129135
ethylnonylamine,C11H25N,CCCCCCCCCNCC,1296.703152,-51.8404014
ethyl nonyl sulfide,C11H24S,CCCCCCCCCSCC,1732.2915873999998,-54.55072944
ethyl octadecyl sulfide,C20H42S,CCCCCCCCCCCCCCCCCCSCC,3038.7700852000003,-98.89112256
3-ethyloctane,C10H22,CCCCCC(CC)CC,1506.813327,-60.00962648
4-ethyloctane,C10H22,CCCCC(CC)CCC,1506.885029,-60.00962648
ethyloctylamine,C10H23N,CCCCCCCCNCC,1185.947772,-46.90731756
ethyl octyl sulfide,C10H22S,CCCCCCCCSCC,1585.972114,-49.6295959
3-ethylpentane,C7H16,CCC(CC)CC,1067.926609,-45.32987796
ethyl pentyl sulfide,C7H16S,CCCCCSCC,1147.133198,-34.84946486
m-ethylphenol,C8H10O,CCC1=CC(=CC=C1)O,996.1531074,-34.90921636
p-ethylphenol,C8H10O,CCC1=CC=C(C=C1)O,990.9427766,-34.4288143
ethyl propanoate,C5H10O2,CCC(=O)OCC,640.416577,-110.8031816
1-ethylpropyl acetate,C7H14O2,CCC(CC)OC(=O)C,928.657813,-125.5737524
1-ethylpropylamine,C5H13N,CCC(CC)N,684.6804881999999,-26.9359762
ethylpropylamine,C5H13N,CCCNCC,688.8391925999999,-22.108055
ethyl propyl ether,C5H12O,CCCOCC,745.340211,-65.0574332
ethyl propyl sulfide,C5H12S,CCCSCC,854.6854559999999,-24.9522264
2-ethylpyridine,C7H9N,CCC1=CC=CC=N1,733.4138115999999,18.761971
3-ethylpyridine,C7H9N,CCC1=CN=CC=C1,734.5132391999999,20.4828142
4-ethylpyridine,C7H9N,CCC1=CC=NC=C1,733.4855134000001,19.478989
3-ethylquinoline,C11H11N,CCC1=CC2=CC=CC=C2N=C1,1032.625423,42.6745213
6-ethylquinoline,C11H11N,CCC1=CC2=C(C=C1)N=CC=C2,1032.50592,42.6745213
8-ethylquinoline,C11H11N,CCC1=CC=CC2=C1N=CC=C2,1032.386417,42.6745213
m-ethylstyrene,C10H12,CCC1=CC(=CC=C1)C=C,1301.602775,24.08224456
p-ethylstyrene,C10H12,CCC1=CC=C(C=C1)C=C,1301.5549741999998,24.08224456
2-ethyltetrahydrofuran,C6H12O,CCC1CCCO1,846.08124,-57.04834214
3-ethyltetrahydrofuran,C6H12O,CCC1CCOC1,845.9139358,-57.04834214
2-ethylthiophene,C6H8S,CCC1=CC=CS1,873.4235264,15.5114894
3-ethylthiophene,C6H8S,CCC1=CSC=C1,872.8977132,15.0334774
m-ethyltoluene,C9H12,CCC1=CC=CC(=C1)C,1183.701116,-0.4302108
p-ethyltoluene,C9H12,CCC1=CC=C(C=C1)C,1183.294805,-0.7648192
ethyl undecyl sulfide,C13H28S,CCCCCCCCCCCSCC,2025.002236,-64.4001667
ethyl vanillin,C9H10O3,CCOC1=C(C=CC(=C1)C=O)O,1038.839579,-96.558424
ethyl vinyl ether,C4H8O,CCOC=C,567.2568404,-33.6759454
ethynylbenzene,C8H6,C#CC1=CC=CC=C1,995.3643876,78.2266638
fluoranthene,C16H10,C1=CC=C2C(=C1)C3=CC=CC4=C3C2=CC=C4,1844.600507,69.072734
fluorene,C13H10,C1C2=CC=CC=C2C3=CC=CC=C31,1538.027511,43.8097998
2-fluoro-1-butene,C4H7F,CCC(=C)F,529.1353834,-49.32127816
3-fluoro-1-butene,C4H7F,CC(C=C)F,530.234811,-48.2433611
4-fluoro-1-butene,C4H7F,C=CCCF,531.4776422,-46.98140942
cis-1-fluoro-1-hexadecene,C16H31F,CCCCCCCCCCCCCC/C=C\F,2280.332345,-108.1406548
5-fluoro-1-pentene,C5H9F,C=CCCCF,671.5351582,-51.91449326
cis-1-fluoro-1-propene,C3H5F,C/C=C\F,382.6247054,-44.01056484
trans-1-fluoro-1-propene,C3H5F,C/C=C/F,382.6247054,-44.01056484
2-fluoro-1-propene,C3H5F,CC(=C)F,382.2422958,-44.38819432
3-fluoro-1-propene,C3H5F,C=CCF,384.5845546,-42.04832558
"1-fluoro-2,2-dimethylbutane",C6H13F,CCC(C)(C)CF,844.6950052,-88.08805136
"1-fluoro-2,2-dimethylpropane",C5H11F,CC(C)(C)CF,697.89752,-83.98431834
"1-fluoro-2,3-dimethylbutane",C6H13F,CC(C)C(C)CF,843.9062854,-88.91740218
"2-fluoro-2,3-dimethylbutane",C6H13F,C[C-](C)C(C)(C)F,844.1930926,-88.91740218
3-fluoro-2-methyl-1-propene,C4H7F,CC(=C)CF,523.0168298,-49.32127816
1-fluoro-2-methylbutane,C5H11F,CCC(C)CF,698.256029,-83.15496752
2-fluoro-2-methylbutane,C5H11F,CCC(C)(C)F,697.8019175999999,-83.98431834
1-fluoro-2-methylpentane,C6H13F,CCCC(C)CF,844.5755022,-88.08805136
2-fluoro-2-methylpentane,C6H13F,CCCC(C)(C)F,843.9779871999999,-88.91740218
3-fluoro-2-methylpentane,C6H13F,CCC(C(C)C)F,843.5955776,-89.35000304
1-fluoro-2-methylpropane,C4H9F,CC(C)CF,558.0312088000001,-78.22188368
2-fluoro-2-methylpropane,C4H9F,CC(C)(C)F,557.2185884,-79.0512345
1-fluoro-3-methylbutane,C5H11F,CC(C)CCF,698.3277308,-83.15496752
2-fluoro-3-methylbutane,C5H11F,CC(C)C(C)F,697.2283031999999,-84.4169192
1-fluoro-3-methylpentane,C6H13F,CCC(C)CCF,844.4559992,-88.08805136
2-fluoro-3-methylpentane,C6H13F,CCC(C)C(C)F,843.4760746,-89.35000304
3-fluoro-3-methylpentane,C6H13F,CCC(C)(CC)F,844.1930926,-88.91740218
1-fluoro-4-methylpentane,C6H13F,CC(C)CCCF,844.527701,-88.08805136
2-fluoro-4-methylpentane,C6H13F,CC(C)CC(C)F,843.4760746,-89.35000304
fluorobenzene,C6H5F,C1=CC=C(C=C1)F,673.4711068,-27.7963978
1-fluorobutane,C4H9F,CCCCF,557.2663896,-72.7534264
2-fluorobutane,C4H9F,CCC(C)F,552.0560588000001,-78.22188368
1-fluorodecane,C10H21F,CCCCCCCCCCF,1435.087626,-102.3423692
1-fluorodocosane,C22H45F,CCCCCCCCCCCCCCCCCCCCCCF,3176.628746,-165.7554411
1-fluorododecane,C12H25F,CCCCCCCCCCCCF,1728.3479883999998,-112.1894164
1-fluorodotriacontane,C32H65F,CCCCCCCCCCCCCCCCCCCCCCCCCCCCCCCCF,4637.385617,-215.0862795
1-fluoroeicosane,C20H41F,CCCCCCCCCCCCCCCCCCCCF,2888.817721,-151.649307
fluoroform,CHF3,C(F)(F)F,-42.7581734,-165.7028598
1-fluoroheneicosane,C21H43F,CCCCCCCCCCCCCCCCCCCCCF,3030.59608,-160.8223573
1-fluorohentriacontane,C31H63F,CCCCCCCCCCCCCCCCCCCCCCCCCCCCCCCF,4491.281249,-210.1531957
1-fluoroheptacosane,C27H55F,CCCCCCCCCCCCCCCCCCCCCCCCCCCF,3906.911579,-190.4208603
1-fluoroheptadecane,C17H35F,CCCCCCCCCCCCCCCCCF,2450.839226,-136.8548356
1-fluoroheptane,C7H15F,CCCCCCCF,996.0336044,-87.5478978
1-fluoroheptatriacontane,C37H75F,CCCCCCCCCCCCCCCCCCCCCCCCCCCCCCCCCCCCCF,5412.983987,-194.7635993
1-fluorohexacosane,C26H53F,CCCCCCCCCCCCCCCCCCCCCCCCCCF,3760.831112,-185.4877765
1-fluorohexadecane,C16H33F,CCCCCCCCCCCCCCCCF,2314.486303,-131.931312
1-fluorohexane,C6H13F,CCCCCCF,849.7380318,-82.6243742
2-fluorohexane,C6H13F,CCCCC(C)F,844.4798998,-88.08805136
3-fluorohexane,C6H13F,CCCC(CC)F,844.5516015999999,-88.08805136
1-fluorohexatriacontane,C36H73F,CCCCCCCCCCCCCCCCCCCCCCCCCCCCCCCCCCCCF,5221.87479,-234.8186149
1-fluorononacosane,C29H59F,CCCCCCCCCCCCCCCCCCCCCCCCCCCCCF,4199.072513,-200.287028
1-fluorononadecane,C19H39F,CCCCCCCCCCCCCCCCCCCF,2742.832856,-146.7018828
1-fluorononane,C9H19F,CCCCCCCCCF,1288.696451,-97.4188456
1-fluorononatriacontane,C39H79F,CCCCCCCCCCCCCCCCCCCCCCCCCCCCCCCCCCCCCCCF,5660.259595,-249.6178664
1-fluorooctacosane,C28H57F,CCCCCCCCCCCCCCCCCCCCCCCCCCCCF,4052.992046,-195.3539442
1-fluorooctadecane,C18H37F,CCCCCCCCCCCCCCCCCCF,2596.824091,-141.7783592
1-fluorooctane,C8H17F,CCCCCCCCF,1142.353078,-92.4714214
1-fluorooctatriacontane,C38H77F,CCCCCCCCCCCCCCCCCCCCCCCCCCCCCCCCCCCCCCF,5514.131327,-244.6943428
1-fluoropentacosane,C25H51F,CCCCCCCCCCCCCCCCCCCCCCCCCF,3614.750645,-180.5546926
1-fluoropentadecane,C15H31F,CCCCCCCCCCCCCCCF,2167.951724,-126.9838878
1-fluoropentane,C5H11F,CCCCCF,703.4902604,-77.7008506
2-fluoropentane,C5H11F,CCCC(C)F,698.2799296,-83.15496752
3-fluoropentane,C5H11F,CCC(CC)F,698.3277308,-83.15496752
1-fluoropentatriacontane,C35H71F,CCCCCCCCCCCCCCCCCCCCCCCCCCCCCCCCCCCF,5075.746521,-229.885531
1-fluoropropane,C3H7F,CCCF,416.587458,-67.8299028
2-fluoropropane,C3H7F,CC(C)F,414.2690998,-70.148261
1-fluorotetracontane,C40H81F,CCCCCCCCCCCCCCCCCCCCCCCCCCCCCCCCCCCCCCCCF,5806.411764,-254.54139
1-fluorotetracosane,C24H49F,CCCCCCCCCCCCCCCCCCCCCCCCF,3468.694078,-175.6216088
1-fluorotetradecane,C14H29F,CCCCCCCCCCCCCCF,2021.393245,-122.0603642
1-fluorotetratriacontane,C34H69F,CCCCCCCCCCCCCCCCCCCCCCCCCCCCCCCCCCF,4929.618253,-224.9524472
p-fluorotoluene,C7H7F,CC1=CC=C(C=C1)F,816.1098876,-35.253385
1-fluorotriacontane,C30H61F,CCCCCCCCCCCCCCCCCCCCCCCCCCCCCCF,4345.176881,-205.2201118
1-fluorotricosane,C23H47F,CCCCCCCCCCCCCCCCCCCCCCCF,3322.637511,-170.688525
1-fluorotridecane,C13H27F,CCCCCCCCCCCCCF,1874.858666,-117.1368406
1-fluorotritriacontane,C33H67F,CCCCCCCCCCCCCCCCCCCCCCCCCCCCCCCCCF,4783.513885,-220.0193634
1-fluoroundecane,C11H23F,CCCCCCCCCCCF,1581.5266026000002,-107.2658928
formaldehyde,CH2O,C=O,125.8844602,-25.9560516
formamide,CH3NO,C(=O)N,120.7697318,-44.50052714
formanilide,C7H7NO,C1=CC=C(C=C1)NC=O,639.7951614,-13.1931312
formic acid,CH2O2,C(=O)O,56.0947082,-90.4876716
fumaric acid,C4H4O4,C(=C/C(=O)O)\C(=O)O,331.1906142,-160.6000817
furan,C4H4O,C1=COC=C1,476.9842742,-8.2935082
furfural,C5H4O2,C1=COC(=C1)C=O,539.6516474,-36.09946624
furfuryl alcohol,C5H6O2,C1=COC(=C1)CO,579.6851524,-52.3184134
glutaric acid,C5H8O4,C(CC(=O)O)CC(=O)O,477.294982,-201.721064
glutaric anhydride,C5H6O3,C1CC(=O)OC(=O)C1,560.2061634,-83.413094
glutaronitrile,C5H6N2,C(CC#N)CC#N,515.9183515999999,40.63102
glycerol,C3H8O3,C(C(CO)O)O,358.2221928,-139.2926968
glyceryl triacetate,C9H14O6,CC(=O)OCC(COC(=O)C)OC(=O)C,938.09855,-299.4028162
guaiacol,C7H8O2,COC1=CC=CC=C1O,815.9903846,-59.512494
halothane,C2HBrClF3,C(C(F)(F)F)(Cl)Br,37.117631800000005,-168.49923
heneicosane,C21H44,CCCCCCCCCCCCCCCCCCCCC,3107.6038132000003,-113.9508906
1-heneicosene,C21H42,CCCCCCCCCCCCCCCCCCCC=C,3079.544509,-83.97236804
heneicosylcyclohexane,C27H54,CCCCCCCCCCCCCCCCCCCCCC1CCCCC1,3937.360943400001,-130.5665877
heneicosylcyclopentane,C26H52,CCCCCCCCCCCCCCCCCCCCCC1CCCC1,3795.080672,-124.1612269
1-heneicosyne,C21H40,CCCCCCCCCCCCCCCCCCCC#C,3060.543532,-44.18503922
hentriacontane,C31H64,CCCCCCCCCCCCCCCCCCCCCCCCCCCCCCC,4567.500262,-163.281729
1-hentriacontene,C31H62,CCCCCCCCCCCCCCCCCCCCCCCCCCCCCC=C,4540.014572,-133.3032064
hentriacontylbenzene,C37H68,CCCCCCCCCCCCCCCCCCCCCCCCCCCCCCCC1=CC=CC=C1,5270.918821,-136.3481429
hentriacontylcyclopentane,C36H72,CCCCCCCCCCCCCCCCCCCCCCCCCCCCCCCC1CCCC1,5256.028747,-173.4920653
1-hentriacontyne,C31H60,CCCCCCCCCCCCCCCCCCCCCCCCCCCCCC#C,4521.037496,-93.51587762
heptacosane,C27H56,CCCCCCCCCCCCCCCCCCCCCCCCCCC,3984.779734,-143.5493937
1-heptacosene,C27H54,CCCCCCCCCCCCCCCCCCCCCCCCCC=C,3955.716604,-113.5708711
heptacosylbenzene,C33H60,CCCCCCCCCCCCCCCCCCCCCCCCCCCC1=CC=CC=C1,4686.405747,-116.6158075
heptacosylcyclohexane,C33H66,CCCCCCCCCCCCCCCCCCCCCCCCCCCC1CCCCC1,4813.17453,-160.1650908
heptacosylcyclopentane,C32H64,CCCCCCCCCCCCCCCCCCCCCCCCCCCC1CCCC1,4671.563474799999,-153.75973
heptadecanal,C17H34O,CCCCCCCCCCCCCCCCC=O,2440.394664,-114.0536632
heptadecane,C17H36,CCCCCCCCCCCCCCCCC,2532.26857,-94.2759167
"1,2-heptadecanediol",C17H36O2,CCCCCCCCCCCCCCCC(CO)O,2470.844028,-168.2482737
"1,17-heptadecanediol",C17H36O2,C(CCCCCCCCO)CCCCCCCCO,2472.086859,-166.986322
heptadecanenitrile,C17H33N,CCCCCCCCCCCCCCCCC#N,1966.61307,-54.81124598
1-heptadecanethiol,C17H36S,CCCCCCCCCCCCCCCCCS,2597.397705,-85.1578378
heptadecanoic acid,C17H34O2,CCCCCCCCCCCCCCCCC(=O)O,2377.559986,-177.820464
1-heptadecanol,C17H36O,CCCCCCCCCCCCCCCCCO,2479.567747,-129.8041586
2-heptadecanol,C17H36O,CCCCCCCCCCCCCCCC(C)O,2484.7302766000003,-131.8643903
2-heptadecanone,C17H34O,CCCCCCCCCCCCCCCC(=O)C,2434.491215,-121.3194456
1-heptadecene,C17H34,CCCCCCCCCCCCCCCC=C,2504.137564,-64.3643158
heptadecyl acetate,C19H38O2,CCCCCCCCCCCCCCCCCOC(=O)C,2677.942727,-180.2583252
heptadecylamine,C17H37N,CCCCCCCCCCCCCCCCCN,2043.190592,-86.04216
heptadecylbenzene,C23H40,CCCCCCCCCCCCCCCCCC1=CC=CC=C1,3225.624976,-67.28496912
heptadecyl butanoate,C21H42O2,CCCCCCCCCCCCCCCCCOC(=O)CCC,2969.6734506000003,-189.890267
heptadecylcyclohexane,C23H46,CCCCCCCCCCCCCCCCCC1CCCCC1,3353.66049,-110.8342524
heptadecylcyclopentane,C22H44,CCCCCCCCCCCCCCCCCC1CCCC1,3210.926107,-104.4288916
heptadecyl propanoate,C20H40O2,CCCCCCCCCCCCCCCCCOC(=O)CC,2824.333902,-184.5604332
1-heptadecyne,C17H32,CCCCCCCCCCCCCCCC#C,2485.6624,-24.7849222
2-heptadecyne,C17H32,CCCCCCCCCCCCCCC#CC,2471.680549,-29.13722146
3-heptadecyne,C17H32,CCCCCCCCCCCCCC#CCC,2471.919555,-29.13722146
1-heptanal,C7H14O,CCCCCCC=O,989.2219334,-64.3882164
heptane,C7H16,CCCCCCC,1068.213416,-44.8853268
"1,2-heptanediol",C7H16O2,CCCCCC(CO)O,985.9953524,-120.339521
"1,3-heptanediol",C7H16O2,CCCCC(CCO)O,985.6846446,-120.339521
"1,4-heptanediol",C7H16O2,CCCC(CCCO)O,985.0871296,-120.339521
"1,6-heptanediol",C7H16O2,CC(CCCCCO)O,986.2821596,-120.817533
"1,7-heptanediol",C7H16O2,C(CCCO)CCCO,988.4810148,-117.1607412
"2,3-heptanediol",C7H16O2,CCCCC(C(C)O)O,983.2945846,-123.2792948
"2,4-heptanediol",C7H16O2,CCCC(CC(C)O)O,982.8165726,-123.7573068
"2,6-heptanediol",C7H16O2,CC(CCCC(C)O)O,990.7276712,-115.8462082
heptanenitrile,C7H13N,CCCCCCC#N,814.3173426,-7.2657824
2-heptanethiol,C7H16S,CCCCCC(C)S,1144.599734,-37.882451
heptanoic acid,C7H14O2,CCCCCCC(=O)O,921.9417444,-128.585228
1-heptanol,C7H16O,CCCCCCCO,1028.6579233999998,-80.425519
2-heptanol,C7H16O,CCCCCC(C)O,1025.0728333999998,-84.84713
3-heptanol,C7H16O,CCCCC(CC)O,1027.917005,-82.53355192
4-heptanol,C7H16O,CCCC(CCC)O,1027.964806,-82.53355192
2-heptanone,C7H14O,CCCCCC(=O)C,981.7410456,-71.9169054
3-heptanone,C7H14O,CCCCC(=O)CC,981.8605486,-71.940806
4-heptanone,C7H14O,CCCC(=O)CCC,981.9083498,-71.9647066
heptatriacontane,C37H76,CCCCCCCCCCCCCCCCCCCCCCCCCCCCCCCCCCCCC,5444.126469,-192.8802321
1-heptatriacontene,C37H74,CCCCCCCCCCCCCCCCCCCCCCCCCCCCCCCCCCCC=C,5416.66468,-162.9017095
1-heptatriacontyne,C37H72,CCCCCCCCCCCCCCCCCCCCCCCCCCCCCCCCCCCC#C,5397.711504,-123.1143807
1-heptene,C7H14,CCCCCC=C,1040.297516,-15.0095768
cis-2-heptene,C7H14,CCCC/C=C\C,1038.8156783999998,-16.610917
trans-2-heptene,C7H14,CCCC/C=C/C,1037.7879526000002,-17.5191398
cis-3-heptene,C7H14,CCC/C=C\CC,1038.791778,-16.5392152
trans-3-heptene,C7H14,CCC/C=C/CC,1037.7879526000002,-17.566941
heptyl acetate,C9H18O2,CCCCCCCOC(=O)C,1225.885675,-130.7601826
heptylamine,C7H17N,CCCCCCCN,875.5267792,-36.806924
heptylbenzene,C13H20,CCCCCCCC1=CC=CC=C1,1771.153963,-17.9971518
heptyl butanoate,C11H22O2,CCCCCCCOC(=O)CCC,1519.432844,-140.3921244
heptylcyclohexane,C13H26,CCCCCCCC1CCCCC1,1897.30133,-65.8939542
heptylcyclopentane,C12H24,CCCCCCCC1CCCC1,1756.6941,-55.0430818
heptyl formate,C8H16O2,CCCCCCCOC=O,1087.979213,-117.0651388
heptyl mercaptan,C7H16S,CCCCCCCS,1146.224975,-35.731397
1-heptylnaphthalene,C17H22,CCCCCCCC1=CC=CC2=CC=CC=C21,2218.142984,-3.346084
2-heptylnaphthalene,C17H22,CCCCCCCC1=CC2=CC=CC=C2C=C1,2217.97568,-3.47275718
heptyl propanoate,C10H20O2,CCCCCCCOC(=O)CC,1373.113371,-135.0622906
1-heptyne,C7H12,CCCCCC#C,1022.085258,24.617618
2-heptyne,C7H12,CCCCC#CC,1017.520244,20.2677088
3-heptyne,C7H12,CCCC#CCC,1017.161735,19.7896968
"hexachloro-1,3-butadiene",C4Cl6,C(=C(Cl)Cl)(C(=C(Cl)Cl)Cl)Cl,359.226018,-6.9789752
hexachlorobenzene,C6Cl6,C1(=C(C(=C(C(=C1Cl)Cl)Cl)Cl)Cl)Cl,535.6841478,-8.1023034
hexachlorocyclopentadiene,C5Cl6,C1(=C(C(C(=C1Cl)Cl)(Cl)Cl)Cl)Cl,434.7758146,-24.378612
hexachloroethane,C2Cl6,C(C(Cl)(Cl)Cl)(Cl)(Cl)Cl,140.87013639999998,-33.1979334
hexacosane,C26H54,CCCCCCCCCCCCCCCCCCCCCCCCCC,3838.006149,-138.6163098
1-hexacosene,C26H52,CCCCCCCCCCCCCCCCCCCCCCCCC=C,3809.660038,-108.6377872
hexacosylbenzene,C32H58,CCCCCCCCCCCCCCCCCCCCCCCCCCC1=CC=CC=C1,4540.30138,-111.6827237
hexacosylcyclohexane,C32H64,CCCCCCCCCCCCCCCCCCCCCCCCCCC1CCCCC1,4667.189665,-155.2320069
hexacosylcyclopentane,C31H62,CCCCCCCCCCCCCCCCCCCCCCCCCCC1CCCC1,4525.483008,-148.8266461
hexadecanal,C16H32O,CCCCCCCCCCCCCCCC=O,2294.720507,-109.0823384
hexadecane,C16H34,CCCCCCCCCCCCCCCC,2385.542787,-89.42887502
"1,2-hexadecanediol",C16H34O2,CCCCCCCCCCCCCCC(CO)O,2323.92704,-163.3151899
"1,16-hexadecanediol",C16H34O2,C(CCCCCCCCO)CCCCCCCO,2325.193772,-162.0532382
hexadecanenitrile,C16H31N,CCCCCCCCCCCCCCCC#N,1829.471427,-49.87816214
1-hexadecanethiol,C16H34S,CCCCCCCCCCCCCCCCS,2463.387041,-80.2343142
hexadecanoic acid,C16H32O2,CCCCCCCCCCCCCCCC(=O)O,2228.133435,-172.801338
1-hexadecanol,C16H34O,CCCCCCCCCCCCCCCCO,2340.203348,-124.880635
2-hexadecanol,C16H34O,CCCCCCCCCCCCCCC(C)O,2338.769312,-126.9313065
2-hexadecanone,C16H32O,CCCCCCCCCCCCCCC(=O)C,2288.673655,-116.3720214
1-hexadecene,C16H32,CCCCCCCCCCCCCCC=C,2357.602985,-59.4168916
hexadecyl acetate,C18H36O2,CCCCCCCCCCCCCCCCOC(=O)C,2543.382349,-175.310901
hexadecylamine,C16H35N,CCCCCCCCCCCCCCCCN,1905.833844,-81.1186364
hexadecylbenzene,C22H38,CCCCCCCCCCCCCCCCC1=CC=CC=C1,3077.345654,-62.5956714
hexadecyl butanoate,C20H40O2,CCCCCCCCCCCCCCCCOC(=O)CCC,2823.951492,-184.9428428
hexadecylcyclohexane,C22H44,CCCCCCCCCCCCCCCCC1CCCCC1,3200.744451,-110.3729708
hexadecylcyclopentane,C21H42,CCCCCCCCCCCCCCCCC1CCCC1,3074.9794942000003,-99.4981978
hexadecyl formate,C17H34O2,CCCCCCCCCCCCCCCCOC=O,2394.84012,-161.6158572
hexadecyl propanoate,C19H38O2,CCCCCCCCCCCCCCCCOC(=O)CC,2678.5880432000004,-179.613009
1-hexadecyne,C16H30,CCCCCCCCCCCCCCC#C,2339.199523,-19.837498
2-hexadecyne,C16H30,CCCCCCCCCCCCCC#CC,2335.375427,-24.20413762
3-hexadecyne,C16H30,CCCCCCCCCCCCC#CCC,2325.958591,-24.20413762
"1,2-hexadiene",C6H10,CCCC=C=C,875.0965684,28.92928624
"1,cis-3-hexadiene",C6H10,CC/C=C\C=C,864.2934971999999,18.04017288
"1,trans-3-hexadiene",C6H10,CC/C=C/C=C,864.2934971999999,18.04017288
"1,cis-4-hexadiene",C6H10,C/C=C\CC=C,864.4608014,18.04017288
"1,5-hexadiene",C6H10,C=CCCC=C,866.7791596,20.1004046
"2,3-hexadiene",C6H10,CCC=C=CC,873.3279239999999,26.96704698
"cis-2,cis-4-hexadiene",C6H10,C/C=C\C=C/C,857.4579256,11.3288844
hexaethylbenzene,C18H30,CCC1=C(C(=C(C(=C1CC)CC)CC)CC)CC,2484.801978,-53.59948556
hexafluoroacetone,C3F6O,C(=O)(C(F)(F)F)C(F)(F)F,-66.802177,-348.94876
hexafluorobenzene,C6F6,C1(=C(C(=C(C(=C1F)F)F)F)F)F,327.916232,-228.8004438
hexafluoroethane,C2F6,C(C(F)(F)F)(F)(F)F,-132.887336,-320.985058
"1,1,1,2,2,3-hexafluoropropane",C3H2F6,C(C(C(F)(F)F)(F)F)F,24.4503138,-315.5118206