Name,Formula,SMILES,Enthalpy_combustion (kcal/mol),Enthalpy_formation (kcal/mol)
"1,2-dichlorobutane",C4H8Cl2,CCC(CCl)Cl,560.2778652,-38.8743259
"1,3-dichlorobutane",C4H8Cl2,CC(CCCl)Cl,560.0627598,-38.8743259
"1,4-dichlorobutane",C4H8Cl2,C(CCCl)CCl,555.4977451999999,-42.782074
"2,2-dichlorobutane",C4H8Cl2,CCC(C)(Cl)Cl,560.0388591999999,-39.70367672
"1,1-dichlorodecane",C10H20Cl2,CCCCCCCCCC(Cl)Cl,1436.569464,-70.5306706
dichlorodifluoromethane,CCl2F2,C(F)(F)(Cl)Cl,-23.2552838,-117.3041448
"1,1-dichlorododecane",C12H24Cl2,CCCCCCCCCCCC(Cl)Cl,1729.9015273999998,-80.4016184
"1,1-dichloroethane",C2H4Cl2,CC(Cl)Cl,265.6073678,-31.0946806
"1,2-dichloroethane",C2H4Cl2,C(CCl)Cl,265.6790696,-30.3059608
"1,1-dichloroethylene",C2H2Cl2,C=C(Cl)Cl,240.1054276,0.5736144
"cis-1,2-dichloroethylene",C2H2Cl2,C(=C\Cl)\Cl,238.1216778,-0.6692168
"trans-1,2-dichloroethylene",C2H2Cl2,C(=C/Cl)\Cl,239.0538012,-0.0956024
dichlorofluoromethane,CHCl2F,C(F)(Cl)Cl,54.851877,-68.0928094
"1,1-dichloroheptadecane",C17H34Cl2,CCCCCCCCCCCCCCCCC(Cl)Cl,2452.058156,-105.043137
"1,1-dichloroheptane",C7H14Cl2,CCCCCCC(Cl)Cl,997.372038,-55.7600998
"1,1-dichlorohexadecane",C16H32Cl2,CCCCCCCCCCCCCCCC(Cl)Cl,2306.073292,-100.1196134
"1,1-dichlorohexane",C6H12Cl2,CCCCCC(Cl)Cl,851.0525648,-50.8126756
dichloromethane,CH2Cl2,C(Cl)Cl,122.251569,-22.8011724
"1,1-dichlorononadecane",C19H38Cl2,CCCCCCCCCCCCCCCCCCC(Cl)Cl,2744.051787,-114.9140848
"1,1-dichlorononane",C9H18Cl2,CCCCCCCCC(Cl)Cl,1290.154388,-65.607147
"1,1-dichlorooctacosane",C28H56Cl2,CCCCCCCCCCCCCCCCCCCCCCCCCCCC(Cl)Cl,4060.544636,-157.2683381
"1,1-dichlorooctadecane",C18H36Cl2,CCCCCCCCCCCCCCCCCC(Cl)Cl,2598.043021,-109.9905612
"1,1-dichlorooctane",C8H16Cl2,CCCCCCCC(Cl)Cl,1143.763213,-60.6836234
"1,1-dichloropentadecane",C15H30Cl2,CCCCCCCCCCCCCCC(Cl)Cl,2160.088427,-95.1960898
"1,1-dichloropentane",C5H10Cl2,CCCCC(Cl)Cl,704.709191,-45.889152
"1,2-dichloropentane",C5H10Cl2,CCCC(CCl)Cl,706.6451396,-43.80740974
"1,3-dichloropentane",C5H10Cl2,CCC(CCCl)Cl,706.4539348000001,-43.80740974
"1,4-dichloropentane",C5H10Cl2,CC(CCCCl)Cl,706.3105311999999,-43.80740974
"1,5-dichloropentane",C5H10Cl2,C(CCCl)CCCl,701.602113,-47.8012
"2,2-dichloropentane",C5H10Cl2,CCCC(C)(Cl)Cl,706.4061336,-44.63676056
"2,3-dichloropentane",C5H10Cl2,CCC(C(C)Cl)Cl,705.6174138,-45.06936142
"2,4-dichloropentane",C5H10Cl2,CC(CC(C)Cl)Cl,705.4023084,-45.06936142
"3,3-dichloropentane",C5H10Cl2,CCC(CC)(Cl)Cl,706.2866306,-44.63676056
"3,4-dichlorophenyl isocyanate",C7H3Cl2NO,C1=CC(=C(C=C1N=C=O)Cl)Cl,557.1707872,-0.70984782
"1,1-dichloropropane",C3H6Cl2,CCC(Cl)Cl,411.8790398,-36.0421048
"1,2-dichloropropane",C3H6Cl2,CC(CCl)Cl,408.2700492,-39.60090414
"1,3-dichloropropane",C3H6Cl2,C(CCl)CCl,408.580757,-38.599469
"2,2-dichloropropane",C3H6Cl2,CC(C)(Cl)Cl,406.2862994,-42.2323602
"2,3-dichloropropene",C3H4Cl2,C=C(CCl)Cl,378.8723112,-11.4483874
"1,1-dichlorotetradecane",C14H28Cl2,CCCCCCCCCCCCCC(Cl)Cl,2022.994585,-90.2486656
"2,4-dichlorotoluene",C7H6Cl2,CC1=C(C=C(C=C1)Cl)Cl,818.1414386,-3.2504816
"1,1-dichlorotricosane",C23H46Cl2,CCCCCCCCCCCCCCCCCCCCCCC(Cl)Cl,3330.214002,-132.6029189
"1,1-dichlorotridecane",C13H26Cl2,CCCCCCCCCCCCC(Cl)Cl,1876.436106,-85.325142
"1,1-dichloroundecane",C11H22Cl2,CCCCCCCCCCC(Cl)Cl,1582.960639,-75.4780948
dicumyl peroxide,C18H22O2,CC(C)(C1=CC=CC=C1)OOC(C)(C)C2=CC=CC=C2,2292.47385,-18.9770764
"1,4-dicyano-2-butene",C6H6N2,C(/C=C/CC#N)C#N,534.0350064,62.380566
dicyclohexylamine,C12H23N,C1CCC(CC1)NC2CCCCC2,1332.649655,-44.21611
dicyclopentadiene,C10H12,C1C=CC2C1C3CC2C=C3,1325.0731646000002,46.8690766
didecylamine,C20H43N,CCCCCCCCCCNCCCCCCCCCC,2459.682448,-96.23815596
didecyl disulfide,C20H42S2,CCCCCCCCCCSSCCCCCCCCCC,3123.210905,-97.514448
didecyl ether,C20H42O,CCCCCCCCCCOCCCCCCCCCC,2943.239387,-138.7907842
didecyl sulfide,C20H42S,CCCCCCCCCCSCCCCCCCCCC,3038.57888,-99.09905778
didodecylamine,C24H51N,CCCCCCCCCCCCNCCCCCCCCCCCC,3030.285372,-115.9704913
diethanolamine,C4H11NO2,C(CO)NCCO,501.554091,-94.85670128
"2,2-diethyl-1,3-propanediol",C7H16O2,CCC(CC)(CO)CO,1003.084281,-117.590952
"3,3-diethyl-2-methylpentane",C10H22,CCC(CC)(CC)C(C)C,1507.74545,-59.49098346
diethylamine,C4H11N,CCNCC,594.1211148,-17.1367302
"2,6-diethylaniline",C10H15N,CCC1=C(C(=CC=C1)CC)N,1023.567096,-4.899623
m-diethylbenzene,C10H14,CCC1=CC(=CC=C1)CC,1330.379098,-5.019126
p-diethylbenzene,C10H14,CCC1=CC=C(C=C1)CC,1330.4747,-4.86855222
diethylbutylamine,C8H19N,CCCCN(CC)CC,984.2506086,-33.68072552
"1,1-diethylcyclopentane",C9H18,CCC1(CCCC1)CC,1321.225168,-36.65635022
diethyl disulfide,C4H10S2,CCSSCC,780.35459,-17.7103446
diethyldodecylamine,C16H35N,CCCCCCCCCCCCN(CC)CC,1916.947623,-73.14539624
diethylene glycol,C4H10O3,C(COCCO)O,515.0818306,-136.5202272
diethylene glycol dibutyl ether,C12H26O3,CCCCOCCOCCOCCCC,1709.394813,-158.221972
diethylene glycol diethyl ether,C8H18O3,CCOCCOCCOCC,1123.184796,-138.62348
diethylene glycol dimethyl ether,C6H14O3,COCCOCCOC,836.8556084,-122.132066
diethylene glycol ethyl ether acetate,C8H16O4,CCOCCOCCOC(=O)C,1017.926554,-185.468656
diethylene glycol monobutyl ether,C8H18O3,CCCCOCCOCCO,1114.7717851999998,-144.837636
diethylene triamine,C4H13N3,C(CNCCN)N,508.7481716,-1.40057516
diethyl ether,C4H10O,CCOCC,598.7339306,-59.9427048
"3,3-diethylheptane",C11H24,CCCCC(CC)(CC)CC,1653.51521,-64.9857314
"3,4-diethylheptane",C11H24,CCCC(CC)C(CC)CC,1654.280029,-64.2687134
"3,5-diethylheptane",C11H24,CCC(CC)CC(CC)CC,1652.941595,-65.6310476
"4,4-diethylheptane",C11H24,CCCC(CC)(CC)CCC,1653.706415,-64.9379302
"3,3-diethylhexane",C10H22,CCCC(CC)(CC)CC,1506.9089293999998,-60.3012138
"3,4-diethylhexane",C10H22,CCC(CC)C(CC)CC,1508.032258,-59.17071542
diethylhexylamine,C10H23N,CCCCC(CC)CNCC(CC)CCCC,1189.604564,-43.5468932
diethylisopropylamine,C7H17N,CCN(CC)C(C)C,881.6453328,-30.00959336
diethyl ketone,C5H10O,CCC(=O)CC,689.5323099999999,-61.6396474
diethyl maleate,C8H12O4,CCOC(=O)/C=C\C(=O)OCC,910.732363,-176.86444
diethyl malonate,C7H12O4,CCOC(=O)CC(=O)OCC,807.4100692,-186.663686
"1,2-diethylnaphthalene",C14H16,CCC1=C(C2=CC=CC=C2C=C1)CC,1773.496222,12.2610078
"1,4-diethylnaphthalene",C14H16,CCC1=CC=C(C2=CC=CC=C12)CC,1778.826056,12.2610078
"1,6-diethylnaphthalene",C14H16,CCC1=CC2=C(C=C1)C(=CC=C2)CC,1773.496222,12.2610078
"1,7-diethylnaphthalene",C14H16,CCC1=CC2=C(C=CC=C2CC)C=C1,1773.496222,12.2610078
"2,3-diethylnaphthalene",C14H16,CCC1=CC2=CC=CC=C2C=C1CC,1773.496222,12.2610078
diethylnonylamine,C13H29N,CCCCCCCCCN(CC)CC,1525.981608,-58.34614472
"3,3-diethyloctane",C12H26,CCCCCC(CC)(CC)CC,1799.954186,-69.9331556
"3,4-diethyloctane",C12H26,CCCCC(CC)C(CC)CC,1800.814608,-69.2161376
"3,5-diethyloctane",C12H26,CCCC(CC)CC(CC)CC,1799.547876,-70.5306706
"3,6-diethyloctane",C12H26,CCC(CC)CCC(CC)CC,1799.237168,-70.7218754
"4,4-diethyloctane",C12H26,CCCCC(CC)(CC)CCC,1800.12149,-69.8853544
"4,5-diethyloctane",C12H26,CCCC(CC)C(CC)CCC,1800.91021,-69.1683364
diethyloctylamine,C12H27N,CCCCCCCCN(CC)CC,1392.281652,-53.41306088
diethyl oxalate,C6H10O4,CCOC(=O)C(=O)OCC,665.6556105999999,-176.8166388
"3,3-diethylpentane",C9H20,CCC(CC)(CC)CC,1360.2787483999998,-55.6405968
"2,3-diethylphenol",C10H14O,CCC1=C(C(=CC=C1)O)CC,1279.87713,-48.27443188
"2,4-diethylphenol",C10H14O,CCC1=CC(=C(C=C1)O)CC,1279.9727323999998,-48.27443188
"2,5-diethylphenol",C10H14O,CCC1=CC(=C(C=C1)CC)O,1279.996633,-48.27443188
"2,6-diethylphenol",C10H14O,CCC1=C(C(=CC=C1)CC)O,1280.2117383999998,-48.27443188
"3,4-diethylphenol",C10H14O,CCC1=C(C=C(C=C1)O)CC,1278.873305,-48.27443188
diethyl phthalate,C12H14O4,CCOC(=O)C1=CC=CC=C1C(=O)OCC,1354.901113,-164.5078298
diethylpropylamine,C7H17N,CCCN(CC)CC,882.8642634,-28.74764168
diethyl succinate,C8H14O4,CCOC(=O)CCC(=O)OCC,941.444634,-203.394106
diethyl sulfate,C4H10O4S,CCOS(=O)(=O)OCC,545.3399902,-180.4256294
diethyl sulfide,C4H10S,CCSCC,708.5571876,-19.8852992
diethylundecylamine,C15H33N,CCCCCCCCCCCN(CC)CC,1789.5335243999998,-68.2123124
"1,1-difluoro-2,2-dimethylpropane",C5H10F2,CC(C)(C)[C-](F)F,620.937588,-132.1177367
"1,3-difluoro-2,2-dimethylpropane",C5H10F2,CC(C)(CF)CF,622.132618,-130.855785
"1,1-difluoro-2-methylbutane",C5H10F2,C[CH+]C(C)C(F)F,621.5829041999999,-131.2883859
"1,2-difluoro-2-methylbutane",C5H10F2,CCC(C)(CF)F,622.132618,-130.855785
"1,3-difluoro-2-methylbutane",C5H10F2,CC(CF)C(C)F,621.5829041999999,-131.2883859
"1,4-difluoro-2-methylbutane",C5H10F2,CC(CCF)CF,622.7779341999999,-130.0264342
"2,3-difluoro-2-methylbutane",C5H10F2,CC(C(C)(C)F)F,620.937588,-132.1177367
"1,1-difluoro-2-methylpropane",C4H8F2,CC(C)C(F)F,474.8332202,-126.355302
"1,3-difluoro-2-methylpropane",C4H8F2,CC(CF)CF,475.382934,-125.0933503
"1,1-difluoro-3-methylbutane",C5H10F2,CC(C)CC(F)F,621.5829041999999,-131.2883859
"1,2-difluoro-3-methylbutane",C5H10F2,CC(C)C(CF)F,621.5829041999999,-131.2883859
"1,3-difluoro-3-methylbutane",C5H10F2,CC(C)(CCF)F,622.132618,-130.855785
m-difluorobenzene,C6H4F2,C1=CC(=CC(=C1)F)F,597.9691114,-74.09186
p-difluorobenzene,C6H4F2,C1=CC(=CC=C1F)F,598.590527,-73.4704444
"1,1-difluorobutane",C4H8F2,CCCC(F)F,471.2959314,-129.5651526
"1,2-difluorobutane",C4H8F2,CCC(CF)F,475.6697412,-125.0933503
"1,3-difluorobutane",C4H8F2,CC(CCF)F,475.4546358,-125.0933503
"1,4-difluorobutane",C4H8F2,C(CCF)CF,476.2672562,-123.8313987
"2,2-difluorobutane",C4H8F2,CCC(C)(F)F,475.3590334,-125.9227012
"2,3-difluorobutane",C4H8F2,CC(C(C)F)F,474.5225124,-126.355302
"1,1-difluorodecane",C10H20F2,CCCCCCCCCC(F)F,1349.6429813999998,-159.1301948
"1,1-difluorododecane",C12H24F2,CCCCCCCCCCCC(F)F,1642.78384,-169.0011426
"1,1-difluoroethane",C2H4F2,CC(F)F,183.9868188,-119.6942048
"1,2-difluoroethane",C2H4F2,C(CF)F,190.4160802,-107.0029862
"cis-1,2-difluoroethene",C2H2F2,C(=C\F)\F,168.8816396,-77.0077332
"1,1-difluoroethylene",C2H2F2,C=C(F)F,165.392152,-80.4972208
"1,1-difluoroheptadecane",C17H34F2,CCCCCCCCCCCCCCCCC(F)F,2365.490183,-193.6426612
"1,1-difluoroheptane",C7H14F2,CCCCCCC(F)F,910.3260528,-144.359624
"1,1-difluorohexadecane",C16H32F2,CCCCCCCCCCCCCCCC(F)F,2219.505318,-188.7191376
"1,1-difluorohexane",C6H12F2,CCCCCC(F)F,764.0065796,-139.4121998
difluoromethane,CH2F2,C(F)F,43.738098,-108.1024138
"1,1-difluorononadecane",C19H38F2,CCCCCCCCCCCCCCCCCCC(F)F,2657.483813,-203.513609
"1,1-difluorononane",C9H18F2,CCCCCCCCC(F)F,1203.180105,-154.2066712
"1,1-difluorooctadecane",C18H36F2,CCCCCCCCCCCCCCCCCC(F)F,2511.451147,-198.5900854
"1,1-difluorooctane",C8H16F2,CCCCCCCC(F)F,1056.741128,-149.2831476
"1,1-difluoropentadecane",C15H30F2,CCCCCCCCCCCCCCC(F)F,2073.520454,-183.795614
"1,1-difluoropentane",C5H10F2,CCCCC(F)F,617.6393052,-134.4886762
"1,2-difluoropentane",C5H10F2,CCCC(CF)F,621.9892144,-130.0264342
"1,3-difluoropentane",C5H10F2,CCC(CCF)F,621.893612,-130.0264342
"1,4-difluoropentane",C5H10F2,CC(CCCF)F,621.7502084,-130.0264342
"1,5-difluoropentane",C5H10F2,C(CCF)CCF,622.5150275999999,-128.7644825
"2,2-difluoropentane",C5H10F2,CCCC(C)(F)F,621.6307054,-130.855785
"2,3-difluoropentane",C5H10F2,CCC(C(C)F)F,621.176594,-131.2883859
"2,4-difluoropentane",C5H10F2,CC(CC(C)F)F,621.176594,-131.2883859
"3,3-difluoropentane",C5H10F2,CCC(CC)(F)F,621.6068048000001,-130.855785
"1,1-difluoropropane",C3H6F2,CCC(F)F,330.87990640000004,-124.641629
"1,2-difluoropropane",C3H6F2,CC(CF)F,323.2795156,-132.2372397
"1,3-difluoropropane",C3H6F2,C(CF)CF,330.186789,-118.8983148
"2,2-difluoropropane",C3H6F2,CC(C)(F)F,330.6409004,-124.880635
"1,1-difluorotetradecane",C14H28F2,CCCCCCCCCCCCCC(F)F,1935.852998,-178.8720904
"1,1-difluorotridecane",C13H26F2,CCCCCCCCCCCCC(F)F,1789.2945183999998,-173.9246662
"1,1-difluoroundecane",C11H22F2,CCCCCCCCCCC(F)F,1496.081958,-164.077619
diglycolic acid,C4H6O5,C(C(=O)O)OCC(=O)O,323.7097264,-225.86067
diheptylamine,C14H31N,CCCCCCCNCCCCCCC,1651.12515,-66.63965292
diheptyl disulfide,C14H30S2,CCCCCCCSSCCCCCCC,2243.549322,-67.877704
diheptyl ether,C14H30O,CCCCCCCOCCCCCCC,2063.075891,-109.1779408
diheptyl sulfide,C14H30S,CCCCCCCSCCCCCCC,2171.178305,-69.54118576
dihexadecylamine,C32H67N,CCCCCCCCCCCCCCCCNCCCCCCCCCCCCCCCC,4178.255090799999,-155.435162
dihexyl adipate,C18H34O4,CCCCCCOC(=O)CCCCC(=O)OCCCCCC,2415.992151,-243.78612
dihexylamine,C12H27N,CCCCCCNCCCCCC,1388.5292576000002,-56.77348524
dihexyl disulfide,C12H26S2,CCCCCCSSCCCCCC,1950.575767,-58.078458
dihexyl ether,C12H26O,CCCCCCOCCCCCC,1769.074611,-99.306993
dihexyl sulfide,C12H26S,CCCCCCSCCCCCC,1878.419856,-59.68935844
"2,5-dihydrofuran",C4H6O,C1C=CCO1,523.5665435999999,-26.0038528
"1,3-dihydroxy-2-methylbenzene",C7H8O2,CC1=C(C=CC=C1O)O,816.3966948,-73.1119354
"1,4-dihydroxy-2-methylbenzene",C7H8O2,CC1=C(C=CC(=C1)O)O,816.3966948,-73.1119354
"1,2-dihydroxy-3-methylbenzene",C7H8O2,CC1=C(C(=CC=C1)O)O,816.3966948,-73.1119354
"1,2-dihydroxy-4-methylbenzene",C7H8O2,CC1=CC(=C(C=C1)O)O,816.3966948,-73.1119354
"1,3-dihydroxy-5-methylbenzene",C7H8O2,CC1=CC(=CC(=C1)O)O,816.3966948,-73.1119354
"1,1-diiodo-2,2-dimethylpropane",C5H10I2,CC(C)(C)C(I)I,732.5294894,-1.63002092
"1,3-diiodo-2,2-dimethylpropane",C5H10I2,CC(C)(CI)CI,733.7006188,-0.36806924
"1,1-diiodo-2-methylbutane",C5H10I2,CCC(C)C(I)I,733.1270044,-0.8006701
"1,2-diiodo-2-methylbutane",C5H10I2,CCC(C)(CI)I,733.7006188,-0.36806924
"1,3-diiodo-2-methylbutane",C5H10I2,CC(CI)C(C)I,733.1270044,-0.8006701
"1,4-diiodo-2-methylbutane",C5H10I2,CC(CCI)CI,734.2742331999999,0.4612815799999999
"2,3-diiodo-2-methylbutane",C5H10I2,CC(C(C)(C)I)I,732.5294894,-1.63002092
"1,1-diiodo-2-methylpropane",C4H8I2,CC(C)C(I)I,586.75973,4.13241374
"1,2-diiodo-2-methylpropane",C4H8I2,CC(C)(CI)I,587.3333444,4.5650146000000005
"1,3-diiodo-2-methylpropane",C4H8I2,CC(CI)CI,587.9308594,5.39436542
"1,1-diiodo-3-methylbutane",C5H10I2,CC(C)CC(I)I,733.1270044,-0.8006701
"1,2-diiodo-3-methylbutane",C5H10I2,CC(C)C(CI)I,733.1270044,-0.8006701
"1,3-diiodo-3-methylbutane",C5H10I2,CC(C)(CCI)I,733.7006188,-0.36806924
"1,1-diiodobutane",C4H8I2,CCCC(I)I,587.9308594,5.39436542
"1,2-diiodobutane",C4H8I2,CCC(CI)I,585.4212964,2.8441714
"1,3-diiodobutane",C4H8I2,CC(CCI)I,587.9308594,5.39436542
"1,4-diiodobutane",C4H8I2,C(CCI)CI,589.1019888000001,6.6563171
"2,2-diiodobutane",C4H8I2,CCC(C)(I)I,587.3333444,4.5650146000000005
"2,3-diiodobutane",C4H8I2,CC(C(C)I)I,586.75973,4.13241374
"1,1-diiodododecane",C12H24I2,CCCCCCCCCCCC(I)I,1751.220863,-34.0703053
"1,1-diiodoethane",C2H4I2,CC(I)I,295.3636148,15.90106918
"1,2-diiodoethane",C2H4I2,C(CI)I,292.543344,15.893899
"1,1-diiodoheptadecane",C17H34I2,CCCCCCCCCCCCCCCCC(I)I,2479.950157,-58.7357245
"1,1-diiodoheptane",C7H14I2,CCCCCCC(I)I,1026.960981,-9.4048861
diiodomethane,CH2I2,C(I)I,155.2821982,28.1071056
"1,1-diiodononadecane",C19H38I2,CCCCCCCCCCCCCCCCCCC(I)I,2771.417974,-68.60189218
"1,1-diiodopentadecane",C15H30I2,CCCCCCCCCCCCCCC(I)I,2188.458439,-48.86955682
"1,3-diiodopentane",C5H10I2,CCC(CCI)I,734.2742331999999,0.4612815799999999
"1,4-diiodopentane",C5H10I2,CC(CCCI)I,734.2742331999999,0.4612815799999999
"1,5-diiodopentane",C5H10I2,C(CCI)CCI,735.4453626,1.72323326
"2,2-diiodopentane",C5H10I2,CCCC(C)(I)I,733.7006188,-0.36806924
"2,3-diiodopentane",C5H10I2,CCC(C(C)I)I,733.1270044,-0.8006701
"2,4-diiodopentane",C5H10I2,CC(CC(C)I)I,733.1270044,-0.8006701
"3,3-diiodopentane",C5H10I2,CCC(CC)(I)I,733.7006188,-0.36806924
"1,1-diiodopropane",C3H6I2,CCC(I)I,441.563585,10.32744926
"1,2-diiodopropane",C3H6I2,CC(CI)I,438.9584196,8.59943588
"1,3-diiodopropane",C3H6I2,C(CI)CI,441.8264916,11.58940094
"2,2-diiodopropane",C3H6I2,CC(C)(I)I,441.0616724,9.49809844
"1,1-diiodotetradecane",C14H28I2,CCCCCCCCCCCCCC(I)I,2042.71258,-43.93647298
"1,1-diiodotridecane",C13H26I2,CCCCCCCCCCCCC(I)I,1896.966721,-39.00338914
"1,1-diiodoundecane",C11H22I2,CCCCCCCCCCC(I)I,1605.140395,-29.13722146
diisobutylamine,C8H19N,CC(C)CNCC(C)C,975.3117842,-42.8298752
diisobutyl ketone,C9H18O,CC(C)CC(=O)CC(C)C,1271.631423,-85.4685456
diisodecyl phthalate,C28H46O4,CC(C)CCCCCCCOC(=O)C1=CC=CC=C1C(=O)OCCCCCCCC(C)C,3692.188589,-253.3702606
diisooctyl phthalate,C24H38O4,CC(C)CCCCCOC(=O)C1=CC=CC=C1C(=O)OCCCCCC(C)C,3124.095227,-231.118802
diisopropanolamine,C6H15NO2,CC(CNCC(C)O)O,682.0514221999999,-108.508724
diisopropylamine,C6H15N,CC(C)NC(C)C,772.8020004,-33.1740328
m-diisopropylbenzene,C12H18,CC(C)C1=CC(=CC=C1)C(C)C,1620.221674,-18.5468656
p-diisopropylbenzene,C12H18,CC(C)C1=CC=C(C=C1)C(C)C,1619.9109661999998,-18.5468656
diisopropyl ether,C6H14O,CC(C)OC(C)C,885.4216276,-76.3385164
diisopropyl sulfide,C6H14S,CC(C)SC(C)C,997.6349446,-33.7237466
diketene,C4H4O2,C=C1CC(=O)O1,437.0463716,-45.4589412
"1,2-dimethoxyethane",C4H10O2,COCCOC,574.8333306,-82.696076
"2,3-dimethyl-1,2-butanediol",C6H14O2,CC(C)C(C)(CO)O,837.7160299999999,-118.1645664
"3,3-dimethyl-1,2-butanediol",C6H14O2,CC(C)(C)C(CO)O,851.2437696,-117.590952
"4,4-dimethyl-1,2-pentanediol",C7H16O2,CC(C)(C)CC(CO)O,984.2506086,-122.371072
"2,3-dimethyl-1,3-butadiene",C6H10,CC(=C)C(=C)C,857.1233172,10.7791706
"2,2-dimethyl-1,3-butanediol",C6H14O2,CC(C(C)(C)CO)O,839.150066,-116.873934
"2,3-dimethyl-1,3-butanediol",C6H14O2,CC(CO)C(C)(C)O,836.999012,-118.8815844
"2,2-dimethyl-1,3-pentanediol",C7H16O2,CCC(C(C)(C)CO)O,999.3079866,-121.3672468
"2,3-dimethyl-1,3-pentanediol",C7H16O2,CCC(C)(C(C)CO)O,983.9638014,-122.6578792
"2,2-dimethyl-1,3-propanediol",C5H12O2,CC(C)(CO)CO,704.6613898,-112.33282
"2,2-dimethyl-1,4-butanediol",C6H14O2,CC(C)(CCO)CO,840.8709091999999,-115.0096872
"3,4-dimethyl-1,4-pentanediol",C7H16O2,CC(CCO)C(C)(C)O,982.7687714,-123.8529092
"2,2-dimethyl-1,5-pentanediol",C7H16O2,CC(C)(CCCO)CO,987.1425812,-119.981012
"3,3-dimethyl-1,5-pentanediol",C7H16O2,CC(C)(CCO)CCO,987.1425812,-119.981012
"2,2-dimethyl-1-butanol",C6H14O,CCC(C)(C)CO,880.9044141999999,-78.87198
"2,3-dimethyl-1-butanol",C6H14O,CC(C)C(C)CO,881.2629231999999,-78.0593596
"3,3-dimethyl-1-butanol",C6H14O,CC(C)(C)CCO,879.2791734,-80.06701
"2,3-dimethyl-1-butene",C6H12,CC(C)C(=C)C,889.7715368,-14.698869
"3,3-dimethyl-1-butene",C6H12,CC(C)(C)C=C,890.416853,-14.4359624
"3,3-dimethyl-1-butyne",C6H10,CC(C)(C)C#C,871.7743849999999,24.617618
"2,2-dimethyl-1-heptanol",C9H20O,CCCCCC(C)(C)CO,1320.1257403999998,-93.22907042
"4,6-dimethyl-1-heptanol",C9H20O,CC(C)CC(C)CCCO,1319.815033,-93.66167128
"6,6-dimethyl-1-heptanol",C9H20O,CC(C)(C)CCCCCO,1320.3647463999998,-93.22907042
"2,2-dimethyl-1-hexanol",C8H18O,CCCCC(C)(C)CO,1173.758466,-88.29598658
"2,5-dimethyl-1-hexanol",C8H18O,CC(C)CCC(C)CO,1173.065349,-88.72858744
"3,3-dimethyl-1-hexanol",C8H18O,CCCC(C)(C)CCO,1173.5672611999998,-88.29598658
"3,5-dimethyl-1-hexanol",C8H18O,CC(C)CC(C)CCO,1172.945846,-88.72858744
"4,4-dimethyl-1-hexanol",C8H18O,CCC(C)(C)CCCO,1173.543361,-88.29598658
"4,5-dimethyl-1-hexanol",C8H18O,CC(C)C(C)CCCO,1172.993647,-88.72858744
"5,5-dimethyl-1-hexanol",C8H18O,CC(C)(C)CCCCO,1173.543361,-88.29598658
"2,3-dimethyl-1-hexene",C8H16,CCCC(C)C(=C)C,1183.48601,-23.4464886
"2,4-dimethyl-1-hexene",C8H16,CCC(C)CC(=C)C,1182.625589,-24.2830096
"2,5-dimethyl-1-hexene",C8H16,CC(C)CCC(=C)C,1181.645664,-25.2629342
"3,3-dimethyl-1-hexene",C8H16,CCCC(C)(C)C=C,1184.68104,-22.466564
"3,4-dimethyl-1-hexene",C8H16,CCC(C)C(C)C=C,1184.68104,-22.227558
"3,5-dimethyl-1-hexene",C8H16,CC(C)CC(C)C=C,1183.916221,-23.1596814
"4,4-dimethyl-1-hexene",C8H16,CCC(C)(C)CC=C,1183.844519,-23.2313832
"4,5-dimethyl-1-hexene",C8H16,CC(C)C(C)CC=C,1184.752742,-22.227558
"5,5-dimethyl-1-hexene",C8H16,CC(C)(C)CCC=C,1183.1036006000002,-24.0918048
"2,2-dimethyl-1-octanol",C10H22O,CCCCCCC(C)(C)CO,1466.564717,-98.16215426
"2,6-dimethyl-1-octanol",C10H22O,CCC(C)CCCC(C)CO,1465.967202,-98.59475512
"3,7-dimethyl-1-octanol",C10H22O,CC(C)CCCC(C)CCO,1465.9194,-98.59475512
"4,5-dimethyl-1-octanol",C10H22O,CCCC(C)C(C)CCCO,1465.9194,-98.59475512
"4,6-dimethyl-1-octanol",C10H22O,CCC(C)CC(C)CCCO,1465.9194,-98.59475512
"4,7-dimethyl-1-octanol",C10H22O,CC(C)CCC(C)CCCO,1465.9194,-98.59475512
"7,7-dimethyl-1-octanol",C10H22O,CC(C)(C)CCCCCCO,1466.469114,-98.16215426
"2,2-dimethyl-1-pentanol",C7H16O,CCCC(C)(C)CO,1027.3911916000002,-83.36290274
"2,3-dimethyl-1-pentanol",C7H16O,CCC(C)C(C)CO,1026.578571,-83.7955036
"2,4-dimethyl-1-pentanol",C7H16O,CC(C)CC(C)CO,1026.6980741999998,-83.7955036
"3,3-dimethyl-1-pentanol",C7H16O,CCC(C)(C)CCO,1027.1043843999998,-83.36290274
"3,4-dimethyl-1-pentanol",C7H16O,CC(C)C(C)CCO,1026.554671,-83.7955036