Name,Formula,SMILES,Enthalpy_combustion (kcal/mol),Enthalpy_formation (kcal/mol)
"4,4-dimethyl-1-pentanol",C7H16O,CC(C)(C)CCCO,1027.223887,-83.36290274
"2,3-dimethyl-1-pentene",C7H14,CCC(C)C(=C)C,1036.0193081999998,-19.6701938
"2,4-dimethyl-1-pentene",C7H14,CC(C)CC(=C)C,1036.4256183999998,-19.3116848
"3,3-dimethyl-1-pentene",C7H14,CCC(C)(C)C=C,1038.409368,-17.4952392
"3,4-dimethyl-1-pentene",C7H14,CC(C)C(C)C=C,1037.883555,-17.8776488
"4,4-dimethyl-1-pentene",C7H14,CC(C)(C)CC=C,1036.808028,-19.2160824
"3,3-dimethyl-1-pentyne",C7H12,CCC(C)(C)C#C,1018.213361,19.9091998
"3,4-dimethyl-1-pentyne",C7H12,CC(C)C(C)C#C,1018.595771,20.5784166
"4,4-dimethyl-1-pentyne",C7H12,CC(C)(C)CC#C,1017.711449,19.5267902
"2,2-dimethyl-1-propanethiol",C5H12S,CC(C)(C)CS,849.4990258,-30.7600722
"2,2-dimethyl-1-propanol",C5H12O,CC(C)(C)CO,729.7809204,-76.25964442
"2,3-dimethyl-2,3-butanediol",C6H14O2,CC(C)(C(C)(C)O)O,846.2246435999999,-122.610078
"2,3-dimethyl-2,3-diphenylbutane",C18H22,CC(C)(C1=CC=CC=C1)C(C)(C)C2=CC=CC=C2,2342.736812,14.1491552
"2,4-dimethyl-2,4-pentanediol",C7H16O2,CC(C)(CC(C)(C)O)O,981.11963,-127.1033908
"2,3-dimethyl-2-butanol",C6H14O,CC(C)C(C)(C)O,877.032517,-83.2218892
"3,3-dimethyl-2-butanol",C6H14O,CC(C(C)(C)C)O,878.2992488,-81.9312568
"3,3-dimethyl-2-butanone",C6H12O,CC(=O)C(C)(C)C,833.9397352,-69.431243
"2,3-dimethyl-2-butene",C6H12,CC(=C(C)C)C,887.2858744,-16.73042
"3,3-dimethyl-2-ethyl-1-butanol",C8H18O,CC[C@@H](CO)C(C)(C)C,1172.587337,-89.55793826
"2,4-dimethyl-2-heptanol",C9H20O,CCCC(C)CC(C)(C)O,1319.217518,-94.4910221
"2,5-dimethyl-2-heptanol",C9H20O,CCC(C)CCC(C)(C)O,1319.217518,-94.4910221
"2,6-dimethyl-2-heptanol",C9H20O,CC(C)CCCC(C)(C)O,1319.480424,-94.4910221
"4,6-dimethyl-2-heptanol",C9H20O,CC(C)CC(C)CC(C)O,1318.357096,-94.92362296
"5,6-dimethyl-2-heptanol",C9H20O,CC(C)C(C)CCC(C)O,1318.428798,-94.92362296
"2,3-dimethyl-2-hexanol",C8H18O,CCCC(C)C(C)(C)O,1172.898044,-89.55793826
"2,5-dimethyl-2-hexanol",C8H18O,CC(C)CCC(C)(C)O,1173.089249,-89.55793826
"3,3-dimethyl-2-hexanol",C8H18O,CCCC(C)(C)C(C)O,1172.921945,-89.55793826
"3,4-dimethyl-2-hexanol",C8H18O,CCC(C)C(C)C(C)O,1172.085424,-89.99053912
"3,5-dimethyl-2-hexanol",C8H18O,CC(C)CC(C)C(C)O,1172.372231,-89.99053912
"5,5-dimethyl-2-hexanol",C8H18O,CC(CCC(C)(C)C)O,1172.754641,-89.55793826
"2,3-dimethyl-2-hexene",C8H16,CCCC(=C(C)C)C,1180.761342,-25.932151
"2,4-dimethyl-2-hexene",C8H16,CCC(C)C=C(C)C,1181.119851,-25.8365486
"2,5-dimethyl-2-hexene",C8H16,CC(C)CC=C(C)C,1179.351206,-27.5573918
"1,4-dimethyl-2-isopropylbenzene",C11H16,CC1=CC(=C(C=C1)C)C(C)C,1473.734897,-13.2887336
"2,7-dimethyl-2-octanol",C10H22O,CC(C)CCCCC(C)(C)O,1465.321885,-99.42410594
"3,7-dimethyl-2-octanol",C10H22O,CC(C)CCCC(C)C(C)O,1464.772172,-99.8567068
"2,3-dimethyl-2-pentanol",C7H16O,CCC(C)C(C)(C)O,1026.578571,-84.62485442
"2,4-dimethyl-2-pentanol",C7H16O,CC(C)CC(C)(C)O,1026.721975,-84.62485442
"3,3-dimethyl-2-pentanol",C7H16O,CCC(C)(C)C(C)O,1026.3873663999998,-84.62485442
"3,4-dimethyl-2-pentanol",C7H16O,CC(C)C(C)C(C)O,1025.694249,-85.05745528
"4,4-dimethyl-2-pentanol",C7H16O,CC(CC(C)(C)C)O,1026.602472,-84.62485442
"3,3-dimethyl-2-pentanone",C7H14O,CCC(C)(C)C(=O)C,980.522115,-73.88631484
"3,4-dimethyl-2-pentanone",C7H14O,CC(C)C(C)C(=O)C,979.9724012,-74.3189157
"4,4-dimethyl-2-pentanone",C7H14O,CC(=O)CC(C)(C)C,980.6655186,-73.88631484
"2,3-dimethyl-2-pentene",C7H14,CCC(=C(C)C)C,1034.4657691999998,-20.9608262
"2,4-dimethyl-2-pentene",C7H14,CC(C)C=C(C)C,1034.178962,-21.5583412
"3,4-dimethyl-cis-2-pentene",C7H14,C/C=C(/C)\C(C)C,1035.134986,-20.4589136
"3,4-dimethyl-trans-2-pentene",C7H14,C/C=C(\C)/C(C)C,1035.087185,-20.4589136
"4,4-dimethyl-cis-2-pentene",C7H14,C/C=C\C(C)(C)C,1038.146462,-17.7103446
"4,4-dimethyl-trans-2-pentene",C7H14,C/C=C/C(C)(C)C,1034.3940673999998,-21.5583412
"4,4-dimethyl-2-pentyne",C7H12,CC#CC(C)(C)C,1013.265937,15.2007816
"1,3-dimethyl-2-propylbenzene",C11H16,CCCC1=C(C=CC=C1C)C,1476.029354,-10.635767
"1,4-dimethyl-2-propylbenzene",C11H16,CCCC1=C(C=CC(=C1)C)C,1474.141207,-12.5956162
"3,3-dimethyl-2-thiabutane",C5H12S,CC(C)(C)SC,853.5860284,-27.10567046
"3,3-dimethyl-2-thiapentane",C6H14S,CCC(C)(C)SC,998.7582728,-32.8394244
"3,4-dimethyl-2-thiapentane",C6H14S,CC(C)C(C)SC,998.8299746,-32.6721202
"5,5-dimethyl-3-ethyl-3-hexanol",C10H22O,CCC(CC)(CC(C)(C)C)O,1465.321885,-100.2534568
"2,2-dimethyl-3-ethyl-3-pentanol",C9H20O,CCC(CC)(C(C)(C)C)O,1318.787307,-95.32037292
"1,1-dimethyl-3-ethylcyclopentane",C9H18,CCC1CCC(C1)(C)C,1316.827458,-41.51773226
"2,2-dimethyl-3-ethylheptane",C11H24,CCCCC(CC)C(C)(C)C,1653.706415,-65.1052344
"2,4-dimethyl-3-ethylheptane",C11H24,CCCC(C)C(CC)C(C)C,1655.068749,-63.5994966
"2,2-dimethyl-3-ethylpentane",C9H20,CCC(CC)C(C)(C)C,1360.852363,-55.2820878
"2,3-dimethyl-3-ethylpentane",C9H20,CCC(C)(CC)C(C)C,1360.0397423999998,-55.8796028
"2,4-dimethyl-3-ethylpentane",C9H20,CCC(C(C)C)C(C)C,1361.5932813999998,-54.4694674
"2,5-dimethyl-3-ethylphenol",C10H14O,CCC1=C(C(=CC(=C1)C)O)C,1277.3914676000002,-51.0158307
"2,2-dimethyl-3-heptanol",C9H20O,CCCCC(C(C)(C)C)O,1319.31312,-94.4910221
"2,3-dimethyl-3-heptanol",C9H20O,CCCCC(C)(C(C)C)O,1319.408722,-94.4910221
"2,6-dimethyl-3-heptanol",C9H20O,CC(C)CCC(C(C)C)O,1318.835108,-94.92362296
"3,5-dimethyl-3-heptanol",C9H20O,CCC(C)CC(C)(CC)O,1319.337021,-94.4910221
"3,6-dimethyl-3-heptanol",C9H20O,CCC(C)(CCC(C)C)O,1319.337021,-94.4910221
"2,2-dimethyl-3-hexanol",C8H18O,CCCC(C(C)(C)C)O,1172.993647,-89.55793826
"2,3-dimethyl-3-hexanol",C8H18O,CCCC(C)(C(C)C)O,1172.945846,-89.55793826
"2,4-dimethyl-3-hexanol",C8H18O,CCC(C)C(C(C)C)O,1172.372231,-89.99053912
"2,5-dimethyl-3-hexanol",C8H18O,CC(C)CC(C(C)C)O,1172.396132,-89.99053912
"3,4-dimethyl-3-hexanol",C8H18O,CCC(C)C(C)(CC)O,1173.089249,-89.55793826
"3,5-dimethyl-3-hexanol",C8H18O,CCC(C)(CC(C)C)O,1173.089249,-89.55793826
"4,4-dimethyl-3-hexanol",C8H18O,CCC(C(C)(C)CC)O,1172.921945,-89.55793826
"5,5-dimethyl-3-hexanol",C8H18O,CCC(CC(C)(C)C)O,1173.065349,-89.55793826
"2,2-dimethyl-cis-3-hexene",C8H16,CC/C=C\C(C)(C)C,1185.398058,-21.749546
"2,2-dimethyl-trans-3-hexene",C8H16,CC/C=C/C(C)(C)C,1181.07205,-26.171157
"2,5-dimethyl-trans-3-hexene",C8H16,CC(C)/C=C/C(C)C,1180.402833,-26.7447714
"1,2-dimethyl-3-isopropylbenzene",C11H16,CC1=C(C(=CC=C1)C(C)C)C,1475.025529,-11.8546976
"2,2-dimethyl-3-isopropylhexane",C11H24,CCCC(C(C)C)C(C)(C)C,1657.339306,-61.6396474
"2,4-dimethyl-3-isopropylhexane",C11H24,CCC(C)C(C(C)C)C(C)C,1658.629938,-60.2056114
"2,5-dimethyl-3-isopropylhexane",C11H24,CC(C)CC(C(C)C)C(C)C,1653.1328,-65.7983518
"2,4-dimethyl-3-isopropylpentane",C10H22,CC(C)C(C(C)C)C(C)C,1505.8334023999998,-61.67071818
"2,2-dimethyl-3-octanol",C10H22O,CCCCCC(C(C)(C)C)O,1465.775997,-99.42410594
"2,3-dimethyl-3-octanol",C10H22O,CCCCCC(C)(C(C)C)O,1465.871599,-99.42410594
"2,7-dimethyl-3-octanol",C10H22O,CC(C)CCCC(C(C)C)O,1465.2023823999998,-99.8567068
"3,5-dimethyl-3-octanol",C10H22O,CCCC(C)CC(C)(CC)O,1465.799897,-99.42410594
"3,6-dimethyl-3-octanol",C10H22O,CCC(C)CCC(C)(CC)O,1465.799897,-99.42410594
"3,7-dimethyl-3-octanol",C10H22O,CCC(C)(CCCC(C)C)O,1465.704295,-99.42410594
"2,2-dimethyl-3-pentanol",C7H16O,CCC(C(C)(C)C)O,1026.650273,-84.62485442
"2,3-dimethyl-3-pentanol",C7H16O,CCC(C)(C(C)C)O,1026.554671,-84.62485442
"2,4-dimethyl-3-pentanol",C7H16O,CC(C)C(C(C)C)O,1026.028857,-85.05745528
"2,2-dimethyl-3-pentanone",C7H14O,CCC(=O)C(C)(C)C,980.6655186,-73.88631484
"2,4-dimethyl-3-pentanone",C7H14O,CC(C)C(=O)C(C)C,979.8528982,-74.4264684
"1,2-dimethyl-3-propylbenzene",C11H16,CCCC1=CC=CC(=C1C)C,1475.431839,-11.1615802
"2,2-dimethyl-3-thiapentane",C6H14S,CCSC(C)(C)C,997.2764356,-34.4646652
"2,3-dimethyl-4-ethylheptane",C11H24,CCCC(CC)C(C)C(C)C,1653.491309,-65.1769362
"2,5-dimethyl-4-ethylheptane",C11H24,CCC(C)C(CC)CC(C)C,1652.32018,-66.4197674
"2,6-dimethyl-4-ethylheptane",C11H24,CCC(CC(C)C)CC(C)C,1650.7427401999998,-68.11671
"2,6-dimethyl-4-ethylphenol",C10H14O,CCC1=CC(=C(C(=C1)C)O)C,1277.367567,-51.0158307
"2,2-dimethyl-4-heptanol",C9H20O,CCCC(CC(C)(C)C)O,1319.408722,-94.4910221
"2,4-dimethyl-4-heptanol",C9H20O,CCCC(C)(CC(C)C)O,1319.480424,-94.4910221
"2,6-dimethyl-4-heptanol",C9H20O,CC(C)CC(CC(C)C)O,1315.441223,-97.99246
"3,3-dimethyl-4-heptanol",C9H20O,CCCC(C(C)(C)CC)O,1319.360921,-94.4910221
"3,5-dimethyl-4-heptanol",C9H20O,CCC(C)C(C(C)CC)O,1318.548301,-94.92362296
"1,2-dimethyl-4-isopropylbenzene",C11H16,CC1=C(C=C(C=C1)C(C)C)C,1472.7310713999998,-14.1730558
"1,3-dimethyl-4-isopropylbenzene",C11H16,CC1=CC(=C(C=C1)C(C)C)C,1473.663195,-13.2887336
"2,4-dimethyl-4-octanol",C10H22O,CCCCC(C)(CC(C)C)O,1465.847699,-99.42410594
"2,5-dimethyl-4-octanol",C10H22O,CCCC(C)C(CC(C)C)O,1465.297985,-99.8567068
"2,6-dimethyl-4-octanol",C10H22O,CCC(C)CC(CC(C)C)O,1465.297985,-99.8567068
"2,7-dimethyl-4-octanol",C10H22O,CC(C)CCC(CC(C)C)O,1465.297985,-99.8567068
"4,6-dimethyl-4-octanol",C10H22O,CCCC(C)(CC(C)CC)O,1465.847699,-99.42410594
"4,7-dimethyl-4-octanol",C10H22O,CCCC(C)(CCC(C)C)O,1465.799897,-99.42410594
"1,2-dimethyl-4-propylbenzene",C11H16,CCCC1=CC(=C(C=C1)C)C,1473.519791,-13.1214294
"1,3-dimethyl-4-propylbenzene",C11H16,CCCC1=C(C=C(C=C1)C)C,1474.093406,-12.5956162
"2,2-dimethyl-4-propylheptane",C12H26,CCCC(CCC)CC(C)(C)C,1797.874834,-72.4905198
"2,3-dimethyl-4-propylheptane",C12H26,CCCC(CCC)C(C)C(C)C,1800.073689,-70.0765592
"2,4-dimethyl-4-propylheptane",C12H26,CCCC(C)(CCC)CC(C)C,1799.237168,-71.0086826
"2,5-dimethyl-4-propylheptane",C12H26,CCCC(CC(C)C)C(C)CC,1798.90256,-71.3193904
"2,6-dimethyl-4-propylheptane",C12H26,CCCC(CC(C)C)CC(C)C,1797.349021,-73.016333
"3,3-dimethyl-4-propylheptane",C12H26,CCCC(CCC)C(C)(C)CC,1801.651129,-68.4513184
"3,4-dimethyl-4-propylheptane",C12H26,CCCC(C)(CCC)C(C)CC,1800.575602,-69.4790442
"3,5-dimethyl-4-propylheptane",C12H26,CCCC(C(C)CC)C(C)CC,1802.248644,-67.8538034
"2,4-dimethyl-5-ethylheptane",C11H24,CCC(CC)C(C)CC(C)C,1652.32018,-66.4197674
"2,5-dimethyl-5-ethylheptane",C11H24,CCC(C)(CC)CCC(C)C,1650.9578456000002,-67.8299028
"2,3-dimethyl-5-ethylphenol",C10H14O,CCC1=CC(=C(C(=C1)C)C)O,1277.1524616000002,-51.0158307
"1,3-dimethyl-5-isopropylbenzene",C11H16,CC1=CC(=CC(=C1)C(C)C)C,1472.300861,-14.7466702
"1,3-dimethyl-5-propylbenzene",C11H16,CCCC1=CC(=CC(=C1)C)C,1473.08958,-13.6950438
"3,4-dimethyl-6-ethylphenol",C10H14O,CCC1=C(C=C(C(=C1)C)C)O,1277.032959,-51.0158307
dimethyl-sec-butylamine,C6H15N,CCC(C)N(C)C,780.4979936,-24.4742144
dimethylacetylene,C4H6,CC#CC,578.1316134,34.8709754
dimethylamine,C2H7N,CNC,364.2929452,-4.4455116
p-dimethylaminobenzaldehyde,C9H11NO,CN(C)C1=CC=C(C=C1)C=O,880.378601,-6.6682674
"2,2-dimethylbutanal",C6H12O,CCC(C)(C)C=O,840.4884996,-62.6434726
"2,3-dimethylbutanal",C6H12O,CC(C)C(C)C=O,838.7437558,-64.1014092
"3,3-dimethylbutanal",C6H12O,CC(C)(C)CC=O,842.257144,-60.8748282
"2,2-dimethylbutane",C6H14,CCC(C)(C)C,918.5478592,-43.977104
"2,3-dimethylbutane",C6H14,CC(C)C(C)C,920.2209012,-42.0411554
"2,2-dimethylbutanenitrile",C6H11N,CCC(C)(C)C#N,722.634641,-6.2619572
"2,3-dimethylbutanenitrile",C6H11N,CC(C)C(C)C#N,723.9730746,-4.7323188
"3,3-dimethylbutanenitrile",C6H11N,CC(C)(C)CC#N,720.9137978,-6.3097584
dimethylbutylamine,C6H15N,CCCCN(C)C,783.5333698000001,-21.8929496
"1,1-dimethylcyclobutane",C6H12,CC1(CCC1)C,894.7428616,-9.7036436
"1,1-dimethylcyclohexane",C8H16,CC1(CCCCC1)C,1163.768015,-43.2122848
"cis-1,2-dimethylcyclohexane",C8H16,C[C@@H]1CCCC[C@@H]1C,1165.584461,-41.1329326
"trans-1,2-dimethylcyclohexane",C8H16,C[C@@H]1CCCC[C@H]1C,1163.863618,-42.9971794
"cis-1,3-dimethylcyclohexane",C8H16,C[C@@H]1CCC[C@@H](C1)C,1162.788091,-44.1205076
"trans-1,3-dimethylcyclohexane",C8H16,C[C@@H]1CCC[C@H](C1)C,1164.604536,-42.184559
"cis-1,4-dimethylcyclohexane",C8H16,CC1CCC(CC1)C,1164.604536,-42.2084596
"trans-1,4-dimethylcyclohexane",C8H16,CC1CCC(CC1)C,1162.8597923999998,-44.096607
"1,1-dimethylcyclopentane",C7H14,CC1(CCCC1)C,1022.53937,-33.0306292
"cis-1,2-dimethylcyclopentane",C7H14,C[C@@H]1CCC[C@@H]1C,1024.355815,-30.951277
"trans-1,2-dimethylcyclopentane",C7H14,C[C@@H]1CCC[C@H]1C,1022.778376,-32.6482196
"cis-1,3-dimethylcyclopentane",C7H14,C[C@@H]1CC[C@@H](C1)C,1023.065183,-32.4809154
"trans-1,3-dimethylcyclopentane",C7H14,C[C@@H]1CC[C@H](C1)C,1023.471493,-31.907301
"1,2-dimethylcyclopentene",C7H12,CC1=C(CCC1)C,988.0986052,-9.3690352
"1,3-dimethylcyclopentene",C7H12,CC1CCC(=C1)C,990.6559694,-7.0984782
"1,4-dimethylcyclopentene",C7H12,CC1CC=C(C1)C,992.3051108,-5.4254362
"1,5-dimethylcyclopentene",C7H12,CC1CCC=C1C,990.5842676,-6.9550746
"3,3-dimethylcyclopentene",C7H12,CC1(CCC=C1)C,992.7592222,-5.0430266
"4,4-dimethylcyclopentene",C7H12,CC1(CC=CC1)C,996.1053062,-1.6969426
"1,1-dimethylcyclopropane",C5H10,CC1(CC1)C,757.2427098000001,-1.9598492
"1,cis-2-dimethylcyclopropane",C5H10,C[C@@H]1C[C@@H]1C,753.1796078,0.1673042
"2,2-dimethyldecane",C12H26,CCCCCCCCC(C)(C)C,1796.321295,-73.6616492
"2,3-dimethyldecane",C12H26,CCCCCCCC(C)C(C)C,1798.639653,-71.223788
"2,4-dimethyldecane",C12H26,CCCCCCC(C)CC(C)C,1797.946536,-72.060309
"2,5-dimethyldecane",C12H26,CCCCCC(C)CCC(C)C,1797.8270326000002,-72.2276132
"2,6-dimethyldecane",C12H26,CCCCC(C)CCCC(C)C,1797.8270326000002,-72.2276132
"2,7-dimethyldecane",C12H26,CCCC(C)CCCCC(C)C,1797.73143,-72.2276132
"2,8-dimethyldecane",C12H26,CCC(C)CCCCCC(C)C,1797.635828,-72.2754144
"2,9-dimethyldecane",C12H26,CC(C)CCCCCCC(C)C,1797.086114,-72.8251282
"3,3-dimethyldecane",C12H26,CCCCCCCC(C)(C)CC,1797.564126,-72.3710168
"3,4-dimethyldecane",C12H26,CCCCCCC(C)C(C)CC,1799.356671,-70.5306706
"3,5-dimethyldecane",C12H26,CCCCCC(C)CC(C)CC,1798.496249,-71.5105952
"3,6-dimethyldecane",C12H26,CCCCC(C)CCC(C)CC,1798.305045,-71.6778994
"3,7-dimethyldecane",C12H26,CCCC(C)CCCC(C)CC,1798.281144,-71.6778994
"3,8-dimethyldecane",C12H26,CCC(C)CCCCC(C)CC,1798.161641,-71.7257006
"4,4-dimethyldecane",C12H26,CCCCCCC(C)(C)CCC,1797.683629,-72.3471162
"4,5-dimethyldecane",C12H26,CCCCCC(C)C(C)CCC,1799.476174,-70.4828694
"4,6-dimethyldecane",C12H26,CCCCC(C)CC(C)CCC,1798.591852,-71.462794
"4,7-dimethyldecane",C12H26,CCCC(C)CCC(C)CCC,1798.400647,-71.6300982
"5,5-dimethyldecane",C12H26,CCCCCC(C)(C)CCCC,1797.73143,-72.3471162
"5,6-dimethyldecane",C12H26,CCCCC(C)C(C)CCCC,1799.500075,-70.4828694
dimethyldecylamine,C12H27N,CCCCCCCCCCN(C)C,1391.899242,-53.41306088
dimethyl disulfide,C2H6S2,CSSC,489.5081886,-5.6405416
"2,2-dimethyldodecane",C14H30,CCCCCCCCCCC(C)(C)C,2091.254699,-81.51060624
"2,3-dimethyldodecane",C14H30,CCCCCCCCCC(C)C(C)C,2090.657184,-81.9432071
"2,4-dimethyldodecane",C14H30,CCCCCCCCC(C)CC(C)C,2090.9678916000003,-81.9432071
dimethyldodecylamine,C14H31N,CCCCCCCCCCCCN(C)C,1654.399532,-63.27922856
dimethylethanolamine,C4H11NO,CN(C)CCO,558.9394315999999,-48.279212
dimethyl ether,C2H6O,COC,317.4716698,-44.0010046
dimethylethylamine,C4H11N,CCN(C)C,600.1679666,-11.9503
"2,3-dimethylfuran",C6H8O,CC1=C(OC=C1)C,764.341188,-23.3986874
"2,4-dimethylfuran",C6H8O,CC1=CC(=CO1)C,764.3172874,-23.3986874
"2,5-dimethylfuran",C6H8O,CC1=CC=C(O1)C,764.3650885999999,-23.3986874
"3,4-dimethylfuran",C6H8O,CC1=COC=C1C,764.699697,-23.3986874
"2,4-dimethylheptadecane",C19H40,CCCCCCCCCCCCCC(C)CC(C)C,2823.784188,-106.6086263
"2,2-dimethylheptane",C9H20,CCCCCC(C)(C)C,1357.1716703999998,-58.8193766
"2,3-dimethylheptane",C9H20,CCCCC(C)C(C)C,1359.346625,-56.3815154
"2,4-dimethylheptane",C9H20,CCCC(C)CC(C)C,1358.294999,-57.600446
"2,5-dimethylheptane",C9H20,CCC(C)CCC(C)C,1358.318899,-57.5287442
"2,6-dimethylheptane",C9H20,CC(C)CCCC(C)C,1357.864788,-58.0306568
"3,4-dimethylheptane",C9H20,CCCC(C)C(C)CC,1359.776836,-55.8796028
"3,5-dimethylheptane",C9H20,CCC(C)CC(C)CC,1358.74911,-57.0985334
"4,4-dimethylheptane",C9H20,CCCC(C)(C)CCC,1358.247197,-57.6482472
dimethylheptylamine,C9H21N,CCCCCCCN(C)C,1090.178068,-38.61380936
"2,2-dimethylhexadecane",C18H38,CCCCCCCCCCCCCCC(C)(C)C,2677.393013,-101.2429416
"2,3-dimethylhexadecane",C18H38,CCCCCCCCCCCCCC(C)C(C)C,2676.771598,-101.6755425
"2,4-dimethylhexadecane",C18H38,CCCCCCCCCCCCC(C)CC(C)C,2677.177908,-101.6755425
dimethylhexadecylamine,C18H39N,CCCCCCCCCCCCCCCCN(C)C,2200.265335,-83.01156392
"2,2-dimethylhexane",C8H18,CCCCC(C)(C)C,1211.091203,-53.6807476
"2,3-dimethylhexane",C8H18,CCCC(C)C(C)C,1213.4812631999998,-51.0994828
"2,4-dimethylhexane",C8H18,CCC(C)CC(C)C,1212.357935,-52.3901152
"2,5-dimethylhexane",C8H18,CC(C)CCC(C)C,1211.521414,-53.178835
"3,3-dimethylhexane",C8H18,CCCC(C)(C)CC,1212.14283,-52.58132
"3,4-dimethylhexane",C8H18,CCC(C)C(C)CC,1211.473613,-50.8365762
dimethyl maleate,C6H8O4,COC(=O)/C=C\C(=O)OC,635.8276618,-148.3749248
"1,2-dimethylnaphthalene",C12H12,CC1=C(C2=CC=CC=C2C=C1)C,1483.295137,19.9689513
"1,3-dimethylnaphthalene",C12H12,CC1=CC2=CC=CC=C2C(=C1)C,1482.960528,19.5506908
"1,4-dimethylnaphthalene",C12H12,CC1=CC=C(C2=CC=CC=C12)C,1483.080031,19.72038506
"1,5-dimethylnaphthalene",C12H12,CC1=C2C=CC=C(C2=CC=C1)C,1478.873526,19.5506908
"1,6-dimethylnaphthalene",C12H12,CC1=CC2=CC=CC(=C2C=C1)C,1483.175634,19.72038506
"1,7-dimethylnaphthalene",C12H12,CC1=CC2=C(C=CC=C2C=C1)C,1483.008329,19.5506908
"1,8-dimethylnaphthalene",C12H12,CC1=C2C(=CC=CC2=CC=C1)C,1479.686146,19.598492
"2,3-dimethylnaphthalene",C12H12,CC1=CC2=CC=CC=C2C=C1C,1478.682321,19.9689513
"2,6-dimethylnaphthalene",C12H12,CC1=CC2=C(C=C1)C=C(C=C2)C,1477.415589,19.72038506
"2,7-dimethylnaphthalene",C12H12,CC1=CC2=C(C=C1)C=CC(=C2)C,1478.1087063999998,20.0287028
"2,3-dimethylnonane",C11H24,CCCCCCC(C)C(C)C,1652.152876,-66.2763638
"2,4-dimethylnonane",C11H24,CCCCCC(C)CC(C)C,1651.459758,-67.1367854
"2,5-dimethylnonane",C11H24,CCCCC(C)CCC(C)C,1651.292454,-67.280189
"2,6-dimethylnonane",C11H24,CCCC(C)CCCC(C)C,1651.292454,-67.280189
"2,7-dimethylnonane",C11H24,CCC(C)CCCCC(C)C,1651.220752,-67.3279902
"2,8-dimethylnonane",C11H24,CC(C)CCCCCC(C)C,1650.623237,-67.877704
"3,3-dimethylnonane",C11H24,CCCCCCC(C)(C)CC,1651.14905,-67.4474932
"3,4-dimethylnonane",C11H24,CCCCCC(C)C(C)CC,1652.869894,-65.5832464
"3,5-dimethylnonane",C11H24,CCCCC(C)CC(C)CC,1651.961671,-66.5870716
"3,6-dimethylnonane",C11H24,CCCC(C)CCC(C)CC,1651.794367,-66.7304752
"3,7-dimethylnonane",C11H24,CCC(C)CCCC(C)CC,1651.698764,-66.7782764
"4,4-dimethylnonane",C11H24,CCCCCC(C)(C)CCC,1651.292454,-67.399692
"4,5-dimethylnonane",C11H24,CCCCC(C)C(C)CCC,1652.989397,-65.5354452
"4,6-dimethylnonane",C11H24,CCCC(C)CC(C)CCC,1652.033373,-66.5392704
"5,5-dimethylnonane",C11H24,CCCCC(C)(C)CCCC,1651.316355,-67.399692
dimethylnonylamine,C11H25N,CCCCCCCCCN(C)C,1300.742354,-48.47997704
"2,2-dimethyloctadecane",C20H42,CCCCCCCCCCCCCCCCC(C)(C)C,2960.949732,-111.1091093
"2,3-dimethyloctadecane",C20H42,CCCCCCCCCCCCCCC[C@@H](C)C(C)C,2969.936357,-111.5417101
"2,4-dimethyloctadecane",C20H42,CCCCCCCCCCCCCCC(C)CC(C)C,2970.390469,-111.5417101
dimethyloctadecylamine,C20H43N,CCCCCCCCCCCCCCCCCCN(C)C,2475.5524462000003,-92.8777316
"2,2-dimethyloctane",C10H22,CCCCCCC(C)(C)C,1503.515044,-63.814602
"2,3-dimethyloctane",C10H22,CCCCCC(C)C(C)C,1505.7378,-61.3289396
"2,4-dimethyloctane",C10H22,CCCCC(C)CC(C)C,1505.905104,-61.25006762
"2,5-dimethyloctane",C10H22,CCCC(C)CCC(C)C,1504.757875,-62.40924672
"2,6-dimethyloctane",C10H22,CCC(C)CCCC(C)C,1504.662273,-62.40924672
"2,7-dimethyloctane",C10H22,CC(C)CCCCC(C)C,1503.969156,-63.09997406
"3,3-dimethyloctane",C10H22,CCCCCC(C)(C)CC,1504.54277,-62.66976326
"3,4-dimethyloctane",C10H22,CCCCC(C)C(C)CC,1506.55042,-60.55934028
"3,5-dimethyloctane",C10H22,CCCC(C)CC(C)CC,1505.450993,-61.72090944
"3,6-dimethyloctane",C10H22,CCC(C)CCC(C)CC,1505.379291,-61.72090944
"4,4-dimethyloctane",C10H22,CCCCC(C)(C)CCC,1504.638372,-62.66976326
"4,5-dimethyloctane",C10H22,CCCC(C)C(C)CCC,1506.598222,-60.55934028
dimethyloctylamine,C10H23N,CCCCCCCCN(C)C,1189.986973,-43.5468932
"2,4-dimethylpentadecane",C17H36,CCCCCCCCCCCC(C)CC(C)C,2530.595528,-96.74245862
"2,2-dimethylpentane",C7H16,CCCC(C)(C)C,1064.484923,-49.1874348
"2,3-dimethylpentane",C7H16,CCC(C)C(C)C,1066.994486,-46.3910646
"2,4-dimethylpentane",C7H16,CC(C)CC(C)C,1065.345344,-48.2075102
"3,3-dimethylpentane",C7H16,CCC(C)(C)CC,1064.723929,-48.8528264
dimethyl phthalate,C10H10O4,COC(=O)C1=CC=CC=C1C(=O)OC,1057.840556,-158.460978
"2,2-dimethylpropanal",C5H10O,CC(C)(C)C=O,692.3286801999999,-59.6558976
"2,2-dimethylpropanenitrile",C5H9N,CC(C)(C)C#N,623.3754491999999,-0.597515