Name,Formula,SMILES,Enthalpy_combustion (kcal/mol),Enthalpy_formation (kcal/mol)
"1,3-tetradecanediol",C14H30O2,CCCCCCCCCCCC(CCO)O,2030.116964,-153.4490222
"1,4-tetradecanediol",C14H30O2,CCCCCCCCCCC(CCCO)O,2030.116964,-153.4490222
"1,14-tetradecanediol",C14H30O2,C(CCCCCCCO)CCCCCCO,2031.383696,-152.1870705
tetradecanenitrile,C14H27N,CCCCCCCCCCCCCC#N,1567.0906401999998,-40.01199446
1-tetradecanethiol,C14H30S,CCCCCCCCCCCCCCS,2170.9392992000003,-70.3633664
tetradecanoic acid,C14H28O2,CCCCCCCCCCCCCC(=O)O,1936.952425,-162.763086
1-tetradecanol,C14H30O,CCCCCCCCCCCCCCO,2049.141842,-114.9857866
2-tetradecanol,C14H30O,CCCCCCCCCCCCC(C)O,2046.895185,-117.0651388
2-tetradecanone,C14H28O,CCCCCCCCCCCCC(=O)C,1995.867404,-106.5010736
1-tetradecene,C14H28,CCCCCCCCCCCCC=C,2064.725033,-49.5459438
2-tetradecene,C14H28,CCCCCCCCCCCC=CC,2092.401928,-14.33796994
tetradecyl acetate,C16H32O2,CCCCCCCCCCCCCCOC(=O)C,2250.671701,-165.4160526
tetradecylamine,C14H31N,CCCCCCCCCCCCCCN,1632.888992,-71.2715892
tetradecylbenzene,C20H34,CCCCCCCCCCCCCCC1=CC=CC=C1,2797.326224,-52.6769224
tetradecyl butanoate,C18H36O2,CCCCCCCCCCCCCCOC(=O)CCC,2532.483675,-175.0479944
tetradecylcyclohexane,C20H40,CCCCCCCCCCCCCCC1CCCCC1,2922.804374,-100.4781224
tetradecylcyclopentane,C19H38,CCCCCCCCCCCCCCC1CCCC1,2781.958138,-89.62725
tetradecyl formate,C15H30O2,CCCCCCCCCCCCCCOC=O,2103.372303,-151.7210088
tetradecyl propanoate,C17H34O2,CCCCCCCCCCCCCCOC(=O)CC,2387.120226,-169.7181606
1-tetradecyne,C14H26,CCCCCCCCCCCCC#C,2046.942986,-9.9665502
3-tetradecyne,C14H26,CCCCCCCCCCC#CCC,2034.108364,-14.33796994
"1,2,3,4-tetraethylbenzene",C14H22,CCC1=C(C(=C(C=C1)CC)CC)CC,1911.25928,-29.45987956
"1,2,3,5-tetraethylbenzene",C14H22,CCC1=CC(=C(C(=C1)CC)CC)CC,1911.378783,-29.35949704
"1,2,4,5-tetraethylbenzene",C14H22,CCC1=CC(=C(C=C1CC)CC)CC,1911.283181,-29.45987956
tetraethylene glycol,C8H18O5,C(COCCOCCOCCO)O,1042.926582,-210.8797739
tetraethylene glycol dimethyl ether,C10H22O5,COCCOCCOCCOCCOC,1351.100918,-211.281304
tetraethylenepentamine,C8H23N5,C(CNCCNCCNCCN)N,27.8202984,3.0114756
"1,1,1,2-tetrafluoroethane",C2H2F4,C(C(F)(F)F)F,29.0870302,-216.8023426
"1,1,2,2-tetrafluoroethane",C2H2F4,C(C(F)F)(F)F,32.6004184,-213.2889544
tetrafluoroethylene,C2F4,C(=C(F)F)(F)F,30.6883704,-157.4093516
"1,1,1,2-tetrafluoropropane",C3H4F4,CC(C(F)(F)F)F,181.7401624,-215.9945023
"1,1,1,3-tetrafluoropropane",C3H4F4,C(CF)C(F)(F)F,176.8166388,-214.7325506
"1,1,2,2-tetrafluoropropane",C3H4F4,CC(C(F)F)(F)F,175.66941,-215.9945023
"1,1,2,3-tetrafluoropropane",C3H4F4,C(C(C(F)F)F)F,176.386428,-215.1651515
"1,1,3,3-tetrafluoropropane",C3H4F4,C(C(F)F)C(F)F,176.386428,-215.1651515
"1,2,2,3-tetrafluoropropane",C3H4F4,C(C(CF)(F)F)F,176.8883406,-214.7325506
tetrahydrofuran,C4H8O,C1CCOC1,556.1191608,-44.02012508
tetrahydrofurfuryl alcohol,C5H10O2,C1CC(OC1)CO,670.9615438000001,-88.2410152
"1,2,3,4-tetrahydronaphthalene",C10H12,C1CCC2=CC=CC=C2C1,1283.342717,6.214156
tetrahydrothiophene,C4H8S,C1CCSC1,661.9032164,-8.0784028
"1,1,1,2-tetraiodoethane",C2H2I4,C(C(I)(I)I)I,251.6972186,51.17596472
"1,1,2,2-tetraiodoethane",C2H2I4,C(C(I)I)(I)I,226.816694,26.5894175
"1,1,1,2-tetraiodopropane",C3H4I4,CC(C(I)(I)I)I,397.108469,44.9809292
"1,1,1,3-tetraiodopropane",C3H4I4,C(CI)C(I)(I)I,397.4191768,46.24288088
"1,1,2,2-tetraiodopropane",C3H4I4,CC(C(I)I)(I)I,397.108469,44.9809292
"1,1,2,3-tetraiodopropane",C3H4I4,C(C(C(I)I)I)I,396.7021588,45.81028001999999
"1,1,3,3-tetraiodopropane",C3H4I4,C(C(I)I)C(I)I,396.7021588,45.81028001999999
"1,2,2,3-tetraiodopropane",C3H4I4,C(C(CI)(I)I)I,397.4191768,46.24288088
"2,2,3,3-tetramethyl-1-butanol",C8H18O,CC(C)(C)C(C)(C)CO,1170.412382,-90.38728908
"2,2,4,4-tetramethyl-3-ethylpentane",C11H24,CCC(C(C)(C)C)C(C)(C)C,1662.573537,-56.405416
"2,2,4,4-tetramethyl-3-hexanol",C10H22O,CCC(C)(C)[C@@H](C(C)(C)C)O,1464.079054,-101.5154084
"2,2,5,5-tetramethyl-3-hexanol",C10H22O,CC(C)(C)CC(C(C)(C)C)O,1462.525515,-101.5154084
"2,2,3,4-tetramethyl-3-pentanol",C9H20O,CC(C)C(C)(C(C)(C)C)O,1317.616177,-96.5823246
"2,2,4,4-tetramethyl-3-pentanol",C9H20O,CC(C)(C)C(C(C)(C)C)O,1316.468949,-96.5823246
"1,2,3,4-tetramethylbenzene",C10H14,CC1=C(C(=C(C=C1)C)C)C,1324.284445,-9.9904508
"1,2,3,5-tetramethylbenzene",C10H14,CC1=CC(=C(C(=C1)C)C)C,1324.164942,-10.6835682
"1,2,4,5-tetramethylbenzene",C10H14,CC1=CC(=C(C=C1C)C)C,1319.217518,-10.65010736
"2,2,3,3-tetramethylbutane",C8H18,CC(C)(C)C(C)(C)C,1209.2269563999998,-53.98906534
"1,1,2,2-tetramethylcyclopentane",C9H18,CC1(CCCC1(C)C)C,1320.555951,-37.87528082
"1,1,3,3-tetramethylcyclopentane",C9H18,CC1(CCC(C1)(C)C)C,1320.866659,-37.87528082
"2,2,3,3-tetramethylheptane",C11H24,CCCCC(C)(C)C(C)(C)C,1652.105074,-66.802177
"2,2,3,4-tetramethylheptane",C11H24,CCCC(C)C(C)C(C)(C)C,1653.180601,-65.72665
"2,2,3,5-tetramethylheptane",C11H24,CCC(C)CC(C)C(C)(C)C,1650.384231,-68.5708214
"2,2,3,6-tetramethylheptane",C11H24,CC(C)CCC(C)C(C)(C)C,1649.738915,-69.2878394
"2,2,4,4-tetramethylheptane",C11H24,CCCC(C)(C)CC(C)(C)C,1652.72649,-66.3958668
"2,2,4,5-tetramethylheptane",C11H24,CCC(C)C(C)CC(C)(C)C,1651.005647,-68.0450082
"2,2,4,6-tetramethylheptane",C11H24,CC(C)CC(C)CC(C)(C)C,1649.619412,-69.5746466
"2,2,5,5-tetramethylheptane",C11H24,CCC(C)(C)CCC(C)(C)C,1647.611762,-71.582297
"2,2,5,6-tetramethylheptane",C11H24,CC(C)C(C)CCC(C)(C)C,1648.615587,-70.4350682
"2,2,6,6-tetramethylheptane",C11H24,CC(C)(C)CCCC(C)(C)C,1646.36893,-72.89683
"2,3,3,4-tetramethylheptane",C11H24,CCCC(C)C(C)(C)C(C)C,1653.897619,-64.8662284
"2,3,3,5-tetramethylheptane",C11H24,CCC(C)CC(C)(C)C(C)C,1652.678689,-66.2285626
"2,3,3,6-tetramethylheptane",C11H24,CC(C)CCC(C)(C)C(C)C,1650.455933,-68.475219
"2,3,4,4-tetramethylheptane",C11H24,CCCC(C)(C)C(C)C(C)C,1653.969321,-64.890129
"2,3,4,5-tetramethylheptane",C11H24,CCC(C)C(C)C(C)C(C)C,1653.324005,-65.4159422
"2,3,4,6-tetramethylheptane",C11H24,CC(C)CC(C)C(C)C(C)C,1651.53146,-67.3279902
"2,3,5,5-tetramethylheptane",C11H24,CCC(C)(C)CC(C)C(C)C,1651.53146,-67.4474932
"2,3,5,6-tetramethylheptane",C11H24,CC(C)C(C)CC(C)C(C)C,1651.005647,-67.8299028
"2,4,4,5-tetramethylheptane",C11H24,CCC(C)C(C)(C)CC(C)C,1654.088824,-64.8662284
"2,4,4,6-tetramethylheptane",C11H24,CC(C)CC(C)(C)CC(C)C,1651.866068,-67.3040896
"2,4,5,5-tetramethylheptane",C11H24,CCC(C)(C)C(C)CC(C)C,1651.340255,-67.5669962
"3,3,4,4-tetramethylheptane",C11H24,CCCC(C)(C)C(C)(C)CC,1653.658613,-65.1530356
"3,3,4,5-tetramethylheptane",C11H24,CCC(C)C(C)C(C)(C)CC,1654.566836,-64.2209122
"3,3,5,5-tetramethylheptane",C11H24,CCC(C)(C)CC(C)(C)CC,1653.7781163999998,-65.129135
"3,4,4,5-tetramethylheptane",C11H24,CCC(C)C(C)(C)C(C)CC,1654.542936,-64.173111
"2,2,3,3-tetramethylhexane",C10H22,CCCC(C)(C)C(C)(C)C,1505.8812036000002,-61.63008716
"2,2,3,4-tetramethylhexane",C10H22,CCC(C)C(C)C(C)(C)C,1506.956731,-60.54978004
"2,2,3,5-tetramethylhexane",C10H22,CC(C)CC(C)C(C)(C)C,1503.252138,-64.29022394
"2,2,4,4-tetramethylhexane",C10H22,CCC(C)(C)CC(C)(C)C,1506.311414,-61.50102392
"2,2,4,5-tetramethylhexane",C10H22,CC(C)C(C)CC(C)(C)C,1504.016957,-63.60905684
"2,2,5,5-tetramethylhexane",C10H22,CC(C)(C)CCC(C)(C)C,1499.595346,-68.18124162
"2,3,3,4-tetramethylhexane",C10H22,CCC(C)C(C)(C)C(C)C,1506.693824,-60.6597228
"2,3,3,5-tetramethylhexane",C10H22,CC(C)CC(C)(C)C(C)C,1505.689999,-61.8308522
"2,3,4,4-tetramethylhexane",C10H22,CCC(C)(C)C(C)C(C)C,1507.458643,-59.98094576
"2,3,4,5-tetramethylhexane",C10H22,CC(C)C(C)C(C)C(C)C,1505.713899,-61.67071818
"3,3,4,4-tetramethylhexane",C10H22,CCC(C)(C)C(C)(C)CC,1507.458643,-60.37052554
"1,2,3,4-tetramethylnaphthalene",C14H16,CC1=C(C2=CC=CC=C2C(=C1C)C)C,1773.663526,12.2610078
"1,2,3,6-tetramethylnaphthalene",C14H16,CC1=CC2=C(C=C1)C(=C(C(=C2)C)C)C,1773.663526,12.2610078
"1,2,4,6-tetramethylnaphthalene",C14H16,CC1=CC2=C(C=C(C(=C2C=C1)C)C)C,1773.663526,12.2610078
"1,2,4,7-tetramethylnaphthalene",C14H16,CC1=CC2=C(C(=CC(=C2C=C1)C)C)C,1778.826056,12.2610078
"1,2,4,8-tetramethylnaphthalene",C14H16,CC1=C2C(=C(C=C(C2=CC=C1)C)C)C,1773.663526,12.2610078
"1,2,5,6-tetramethylnaphthalene",C14H16,CC1=C(C2=C(C=C1)C(=C(C=C2)C)C)C,1773.663526,12.2610078
"1,2,5,8-tetramethylnaphthalene",C14H16,CC1=C(C2=C(C=CC(=C2C=C1)C)C)C,1773.663526,12.2610078
"1,2,6,8-tetramethylnaphthalene",C14H16,CC1=C(C2=C(C=C(C=C2C=C1)C)C)C,1773.663526,12.2610078
"1,3,5,8-tetramethylnaphthalene",C14H16,CC1=C2C=C(C=C(C2=C(C=C1)C)C)C,1773.663526,12.2610078
"1,4,5,8-tetramethylnaphthalene",C14H16,CC1=C2C(=CC=C(C2=C(C=C1)C)C)C,1773.663526,12.2610078
"1,4,6,7-tetramethylnaphthalene",C14H16,CC1=C2C=C(C(=CC2=C(C=C1)C)C)C,1773.663526,12.2610078
"2,2,3,3-tetramethyloctane",C12H26,CCCCCC(C)(C)C(C)(C)C,1798.257243,-71.7496012
"2,2,3,4-tetramethyloctane",C12H26,CCCCC(C)C(C)C(C)(C)C,1799.452273,-70.6740742
"2,2,3,5-tetramethyloctane",C12H26,CCCC(C)CC(C)C(C)(C)C,1796.727605,-73.4704444
"2,2,3,6-tetramethyloctane",C12H26,CCC(C)CCC(C)C(C)(C)C,1796.488599,-73.6616492
"2,2,3,7-tetramethyloctane",C12H26,CC(C)CCCC(C)C(C)(C)C,1795.938885,-74.211363
"2,2,4,4-tetramethyloctane",C12H26,CCCCC(C)(C)CC(C)(C)C,1798.8547583999998,-71.343291
"2,2,4,5-tetramethyloctane",C12H26,CCCC(C)C(C)CC(C)(C)C,1797.349021,-72.9446312
"2,2,4,6-tetramethyloctane",C12H26,CCC(C)CC(C)CC(C)(C)C,1796.369096,-73.972357
"2,2,4,7-tetramethyloctane",C12H26,CC(C)CCC(C)CC(C)(C)C,1795.652078,-74.689375
"2,2,5,5-tetramethyloctane",C12H26,CCCC(C)(C)CCC(C)(C)C,1793.859533,-76.5058206
"2,2,5,6-tetramethyloctane",C12H26,CCC(C)C(C)CCC(C)(C)C,1795.532575,-74.689375
"2,2,5,7-tetramethyloctane",C12H26,CC(C)CC(C)CCC(C)(C)C,1794.12244,-76.2190134
"2,2,6,6-tetramethyloctane",C12H26,CCC(C)(C)CCCC(C)(C)C,1793.811732,-76.5297212
"2,2,6,7-tetramethyloctane",C12H26,CC(C)C(C)CCCC(C)(C)C,1794.815557,-75.3824924
"2,2,7,7-tetramethyloctane",C12H26,CC(C)(C)CCCCC(C)(C)C,1792.521099,-77.8203536
"2,3,3,4-tetramethyloctane",C12H26,CCCCC(C)C(C)(C)C(C)C,1800.1692913999998,-69.8136526
"2,3,3,5-tetramethyloctane",C12H26,CCCC(C)CC(C)(C)C(C)C,1799.022063,-71.1281856
"2,3,3,6-tetramethyloctane",C12H26,CCC(C)CCC(C)(C)C(C)C,1797.229518,-72.8729294
"2,3,3,7-tetramethyloctane",C12H26,CC(C)CCCC(C)(C)C(C)C,1796.679804,-73.4226432
"2,3,4,4-tetramethyloctane",C12H26,CCCCC(C)(C)C(C)C(C)C,1800.264894,-69.8375532
"2,3,4,5-tetramethyloctane",C12H26,CCCC(C)C(C)C(C)C(C)C,1799.762981,-70.3155652
"2,3,4,6-tetramethyloctane",C12H26,CCC(C)CC(C)C(C)C(C)C,1798.424548,-71.7018
"2,3,4,7-tetramethyloctane",C12H26,CC(C)CCC(C)C(C)C(C)C,1797.73143,-72.418818
"2,3,5,5-tetramethyloctane",C12H26,CCCC(C)(C)CC(C)C(C)C,1797.7792313999998,-72.3471162
"2,3,5,6-tetramethyloctane",C12H26,CCC(C)C(C)CC(C)C(C)C,1798.066039,-72.060309
"2,3,5,7-tetramethyloctane",C12H26,CC(C)CC(C)CC(C)C(C)C,1796.608102,-73.613848
"2,3,6,6-tetramethyloctane",C12H26,CCC(C)(C)CCC(C)C(C)C,1796.082289,-74.09186
"2,3,6,7-tetramethyloctane",C12H26,CC(C)C(C)CCC(C)C(C)C,1797.157816,-72.9446312
"2,4,4,5-tetramethyloctane",C12H26,CCCC(C)C(C)(C)CC(C)C,1799.261069,-70.9369808
"2,4,4,6-tetramethyloctane",C12H26,CCC(C)CC(C)(C)CC(C)C,1798.639653,-71.7018
"2,4,4,7-tetramethyloctane",C12H26,CC(C)CCC(C)(C)CC(C)C,1796.416897,-73.9484564
"2,4,5,5-tetramethyloctane",C12H26,CCCC(C)(C)C(C)CC(C)C,1797.73143,-72.4666192
"2,4,5,6-tetramethyloctane",C12H26,CCC(C)C(C)C(C)CC(C)C,1798.591852,-71.5583964
"2,4,5,7-tetramethyloctane",C12H26,CC(C)CC(C)C(C)CC(C)C,1796.847108,-73.4704444
"2,4,6,6-tetramethyloctane",C12H26,CCC(C)(C)CC(C)CC(C)C,1797.0622133999998,-73.2314384
"2,5,5,6-tetramethyloctane",C12H26,CCC(C)C(C)(C)CCC(C)C,1797.468524,-72.6817246
"2,5,6,6-tetramethyloctane",C12H26,CCC(C)(C)C(C)CCC(C)C,1797.444623,-72.657824
"3,3,4,4-tetramethyloctane",C12H26,CCCCC(C)(C)C(C)(C)CC,1799.858584,-70.1004598
"3,3,4,5-tetramethyloctane",C12H26,CCCC(C)C(C)C(C)(C)CC,1800.9341106000002,-69.1205352
"3,3,4,6-tetramethyloctane",C12H26,CCC(C)CC(C)C(C)(C)CC,1798.161641,-71.940806
"3,3,5,5-tetramethyloctane",C12H26,CCCC(C)(C)CC(C)(C)CC,1800.049788,-70.028758
"3,3,5,6-tetramethyloctane",C12H26,CCC(C)C(C)CC(C)(C)CC,1798.496249,-71.6778994
"3,3,6,6-tetramethyloctane",C12H26,CCC(C)(C)CCC(C)(C)CC,1795.006762,-75.2390888
"3,4,4,5-tetramethyloctane",C12H26,CCCC(C)C(C)(C)C(C)CC,1800.91021,-69.072734
"3,4,4,6-tetramethyloctane",C12H26,CCC(C)CC(C)(C)C(C)CC,1799.691279,-70.4350682
"3,4,5,5-tetramethyloctane",C12H26,CCCC(C)(C)C(C)C(C)CC,1800.958011,-69.1205352
"3,4,5,6-tetramethyloctane",C12H26,CCC(C)C(C)C(C)C(C)CC,1800.384397,-69.6463484
"4,4,5,5-tetramethyloctane",C12H26,CCCC(C)(C)C(C)(C)CCC,1799.9302853999998,-70.0765592
"2,2,3,3-tetramethylpentane",C9H20,CCC(C)(C)C(C)(C)C,1359.442227,-56.6683226
"2,2,3,4-tetramethylpentane",C9H20,CC(C)C(C)C(C)(C)C,1360.015842,-56.16641
"2,2,4,4-tetramethylpentane",C9H20,CC(C)(C)CC(C)(C)C,1358.677408,-57.9111538
"2,3,3,4-tetramethylpentane",C9H20,CC(C)C(C)(C)C(C)C,1359.53783,-56.4771178
"2,3,4,5-tetramethylphenol",C10H14O,CC1=CC(=C(C(=C1C)C)C)O,1273.9975823999998,-53.75722952
"2,3,4,6-tetramethylphenol",C10H14O,CC1=CC(=C(C(=C1C)C)O)C,1274.212688,-53.75722952
"2,3,5,6-tetramethylphenol",C10H14O,CC1=CC(=C(C(=C1C)O)C)C,1274.260489,-53.75722952
tetramethylsilane,C4H12Si,C[Si](C)(C)C,725.861222,-55.7361992
tetranitromethane,CN4O8,C([N+](=O)[O-])([N+](=O)[O-])([N+](=O)[O-])[N+](=O)[O-],83.2457898,19.6701938
tetraphenylethylene,C26H20,C1=CC=C(C=C1)C(=C(C2=CC=CC=C2)C3=CC=CC=C3)C4=CC=CC=C4,3127.871522,104.684628
tetratriacontane,C34H70,CCCCCCCCCCCCCCCCCCCCCCCCCCCCCCCCCC,5005.789465,-178.0809805
1-tetratriacontene,C34H68,CCCCCCCCCCCCCCCCCCCCCCCCCCCCCCCCC=C,4978.303775,-148.102458
tetratriacontylbenzene,C40H74,CCCCCCCCCCCCCCCCCCCCCCCCCCCCCCCCCCC1=CC=CC=C1,5709.351427,-151.1473944
tetratriacontylcyclopentane,C39H78,CCCCCCCCCCCCCCCCCCCCCCCCCCCCCCCCCCC1CCCC1,5694.437453,-188.2913169
1-tetratriacontyne,C34H66,CCCCCCCCCCCCCCCCCCCCCCCCCCCCCCCCC#C,4959.3745,-108.3151291
thiacyclobutane,C3H6S,C1CSC1,533.341889,14.579366
thiacycloheptane,C6H12S,C1CCCSCC1,957.4819366,-15.65967312
thiacyclohexane,C5H10S,C1CCSCC1,806.406244,-15.1290798
thioacetic-acid,C2H4OS,CC(=O)S,322.897106,-43.4751914
thiophene,C4H4S,C1=CSC=C1,582.577125,27.4617894
p-tolualdehyde,C8H8O,CC1=CC=C(C=C1)C=O,966.659767,-16.8977242
toluene,C7H8,CC1=CC=CC=C1,893.4761298000001,11.9981012
toluenediamine,C7H10N2,CC1=C(C=C(C=C1)N)N,552.0560588000001,13.95078022
toluene diisocyanate,C9H6N2O2,CC1=C(C=C(C=C1)N=C=O)N=C=O,403.2270226,-54.0512069
p-toluic acid,C8H8O2,CC1=CC=C(C=C1)C(=O)O,887.0229678000001,-77.1511368
m-toluidine,C7H9N,CC1=CC(=CC=C1)N,729.1834054,15.296384
p-toluidine,C7H9N,CC1=CC=C(C=C1)N,720.3162828000001,10.75527
triacontane,C30H62,CCCCCCCCCCCCCCCCCCCCCCCCCCCCCC,4422.519223,-158.3486452
1-triacontene,C30H60,CCCCCCCCCCCCCCCCCCCCCCCCCCCCC=C,4393.934105,-128.3701226
triacontylbenzene,C36H66,CCCCCCCCCCCCCCCCCCCCCCCCCCCCCCC1=CC=CC=C1,5124.790553,-131.415059
triacontylcyclohexane,C36H72,CCCCCCCCCCCCCCCCCCCCCCCCCCCCCCC1CCCCC1,5251.176925,-174.9643423
triacontylcyclopentane,C35H70,CCCCCCCCCCCCCCCCCCCCCCCCCCCCCCC1CCCC1,5109.900478799999,-168.5589815
1-triacontyne,C30H58,CCCCCCCCCCCCCCCCCCCCCCCCCCCCC#C,4374.957029,-88.58279378
"1,1,1-tribromo-2-methylpropane",C4H7Br3,CC(C)C(Br)(Br)Br,539.2214366,-14.56263558
"1,1,2-tribromo-2-methylpropane",C4H7Br3,CC(C)(C(Br)Br)Br,538.8151264,-14.56263558
"1,1,3-tribromo-2-methylpropane",C4H7Br3,CC(CBr)C(Br)Br,542.4002164,-13.73328476
"1,2,3-tribromo-2-methylpropane",C4H7Br3,CC(CBr)(CBr)Br,539.3648402,-13.3006839
"1,1,2-tribromobutane",C4H7Br3,CCC(C(Br)Br)Br,542.3763158,-13.73328476
"1,1,3-tribromobutane",C4H7Br3,CC(CC(Br)Br)Br,542.4002164,-13.73328476
"1,1,4-tribromobutane",C4H7Br3,C(CC(Br)Br)CBr,539.1497348,-12.47133308
"1,2,2-tribromobutane",C4H7Br3,CCC(CBr)(Br)Br,539.5082438000001,-13.3006839
"1,2,3-tribromobutane",C4H7Br3,CC(C(CBr)Br)Br,542.304614,-13.73328476
"1,2,4-tribromobutane",C4H7Br3,C(CBr)C(CBr)Br,543.5713458,-12.47133308
"1,1,1-tribromodecane",C10H19Br3,CCCCCCCCCC(Br)(Br)Br,1414.4136073999998,-42.89918694
"1,1,1-tribromododecane",C12H23Br3,CCCCCCCCCCCC(Br)(Br)Br,1707.793472,-52.76535462
"1,1,1-tribromoethane",C2H3Br3,CC(Br)(Br)Br,252.5337396,-1.1233282
"1,1,2-tribromoethane",C2H3Br3,C(C(Br)Br)Br,250.478288,-2.6051654
"1,1,1-tribromoheptadecane",C17H33Br3,CCCCCCCCCCCCCCCCC(Br)(Br)Br,2437.765598,-77.43077382
"1,1,1-tribromoheptane",C7H13Br3,CCCCCCC(Br)(Br)Br,976.9848262,-28.09993542
"1,1,1-tribromohexadecane",C16H31Br3,CCCCCCCCCCCCCCCC(Br)(Br)Br,2291.756832,-72.49768998
"1,1,1-tribromohexane",C6H11Br3,CCCCCC(Br)(Br)Br,831.1911662,-23.16685158
"1,1,1-tribromononadecane",C19H37Br3,CCCCCCCCCCCCCCCCCCC(Br)(Br)Br,2729.85483,-87.2969415
"1,1,1-tribromononane",C9H17Br3,CCCCCCCCC(Br)(Br)Br,1268.596047,-37.9661031
"1,1,1-tribromooctadecane",C18H35Br3,CCCCCCCCCCCCCCCCCC(Br)(Br)Br,2583.798264,-82.36385766
"1,1,1-tribromooctane",C8H15Br3,CCCCCCCC(Br)(Br)Br,1122.778486,-33.03301926
"1,1,1-tribromopentadecane",C15H29Br3,CCCCCCCCCCCCCCC(Br)(Br)Br,2145.748067,-67.56460614
"1,1,1-tribromopentane",C5H9Br3,CCCCC(Br)(Br)Br,685.3736056,-18.23376774
"1,1,1-tribromopropane",C3H5Br3,CCC(Br)(Br)Br,393.7862856,-8.36760006
"1,1,2-tribromopropane",C3H5Br3,CC(C(Br)Br)Br,395.8895384,-8.80020092
"1,1,3-tribromopropane",C3H5Br3,C(CBr)C(Br)Br,396.9650654,-7.53824924
"1,2,2-tribromopropane",C3H5Br3,CC(CBr)(Br)Br,393.8101862,-8.36760006
"1,2,3-tribromopropane",C3H5Br3,C(C(CBr)Br)Br,396.5348546,-7.53824924
"1,1,1-tribromotetradecane",C14H27Br3,CCCCCCCCCCCCCC(Br)(Br)Br,1999.739301,-62.6315223
"1,1,1-tribromotridecane",C13H25Br3,CCCCCCCCCCCCC(Br)(Br)Br,1853.754437,-57.69843846
"1,1,1-tribromoundecane",C11H21Br3,CCCCCCCCCCC(Br)(Br)Br,1560.278969,-47.83227078
tributylamine,C12H27N,CCCCN(CCCC)CCCC,1388.911667,-55.688398
"1,2,2-trichloro-1,1-difluoroethane",C2HCl3F2,C(C(F)(F)Cl)(Cl)Cl,81.2859406,-128.6043485
"1,1,2-trichloro-1,2,2-trifluoroethane",C2Cl3F3,C(C(F)(Cl)Cl)(F)(F)Cl,12.906324,-168.6904348
"1,1,2-trichloro-1,2-difluoroethane",C2HCl3F2,C(C(F)(Cl)Cl)(F)Cl,81.2859406,-128.6043485
"1,1,2-trichloro-1-fluoroethane",C2H2Cl3F,C(C(F)(Cl)Cl)Cl,158.0068666,-80.47093014
"1,1,1-trichloro-2,2,2-trifluoroethane",C2Cl3F3,C(C(Cl)(Cl)Cl)(F)(F)F,4.5889152,-177.0078436
"1,1,1-trichloro-2,2-difluoroethane",C2HCl3F2,C(C(Cl)(Cl)Cl)(F)F,81.26204,-128.6043485
"1,1,1-trichloro-2-fluoroethane",C2H2Cl3F,C(C(Cl)(Cl)Cl)F,166.18087179999998,-72.179812
"1,1,2-trichloro-2-fluoroethane",C2H2Cl3F,C(C(Cl)Cl)(F)Cl,157.52885460000002,-80.903531
"1,1,2-trichloro-2-methylpropane",C4H7Cl3,CC(C)(C(Cl)Cl)Cl,525.1917844,-44.72758284
"1,2,3-trichloro-2-methylpropane",C4H7Cl3,CC(CCl)(CCl)Cl,525.9566036,-43.46563116
trichloroacetaldehyde,C2HCl3O,C(=O)C(Cl)(Cl)Cl,161.7592608,-47.084182
trichloroacetyl chloride,C2Cl4O,C(=O)(C(Cl)(Cl)Cl)Cl,106.3815706,-73.11910558
"1,2,4-trichlorobenzene",C6H3Cl3,C1=CC(=C(C=C1Cl)Cl)Cl,640.3926764,-0.0478012
"1,2,3-trichlorobenzene",C6H3Cl3,C1=CC(=C(C(=C1)Cl)Cl)Cl,637.6441074,2.151054
"1,3,5-trichlorobenzene",C6H3Cl3,C1=C(C=C(C=C1Cl)Cl)Cl,634.6326318,-1.6491414
"1,1,1-trichlorobutane",C4H7Cl3,CCCC(Cl)(Cl)Cl,526.1956096,-43.8815016
"1,1,2-trichlorobutane",C4H7Cl3,CCC(C(Cl)Cl)Cl,525.8131999999999,-43.89823202
"1,1,3-trichlorobutane",C4H7Cl3,CC(CC(Cl)Cl)Cl,525.8131999999999,-43.89823202
"1,1,4-trichlorobutane",C4H7Cl3,C(CC(Cl)Cl)CCl,527.00823,-42.63628034
"1,2,2-trichlorobutane",C4H7Cl3,CCC(CCl)(Cl)Cl,525.9088024,-43.46563116
"1,2,3-trichlorobutane",C4H7Cl3,CC(C(CCl)Cl)Cl,525.4068898,-43.89823202
"1,2,4-trichlorobutane",C4H7Cl3,C(CCl)C(CCl)Cl,526.5541185999999,-42.63628034
"1,3,3-trichlorobutane",C4H7Cl3,CC(CCCl)(Cl)Cl,526.3390132,-43.46563116
"1,1,1-trichlorodecane",C10H19Cl3,CCCCCCCCCC(Cl)(Cl)Cl,1404.470958,-73.4465438
"1,1,1-trichloroethane",C2H3Cl3,CC(Cl)(Cl)Cl,233.6522656,-34.0105538
"1,1,2-trichloroethane",C2H3Cl3,C(C(Cl)Cl)Cl,231.716317,-34.7992736
trichloroethylene,C2HCl3,C(=C(Cl)Cl)Cl,207.1465002,-2.2944576
trichlorofluoromethane,CCl3F,C(F)(Cl)(Cl)Cl,26.2428588,-67.8060022
"1,1,1-trichloroheptadecane",C17H33Cl3,CCCCCCCCCCCCCCCCC(Cl)(Cl)Cl,2419.864048,-107.9590102
"1,1,1-trichloroheptane",C7H13Cl3,CCCCCCC(Cl)(Cl)Cl,965.2735322,-58.6520724
"1,1,1-trichlorohexadecane",C16H31Cl3,CCCCCCCCCCCCCCCC(Cl)(Cl)Cl,2273.879183,-103.0354866
"1,1,1-trichlorohexane",C6H11Cl3,CCCCCC(Cl)(Cl)Cl,818.9062578,-53.7285488
"1,1,1-trichlorononadecane",C19H37Cl3,CCCCCCCCCCCCCCCCCCC(Cl)(Cl)Cl,2711.857678,-117.829958